 Entering Gaussian System, Link 0=g16
 Input=O2_O2_185.com
 Output=O2_O2_185.log
 Initial command:
 /usr/site/hpc/x86_64/glibc-2.17/broadwell/gaussian/g16_a.03/pgi-16.5/g16/l1.exe "/gpfs/gpfs1/scratch/c7441284/ForceFieldModel/O2_NA_6/Gau-1949747.inp" -scrdir="/gpfs/gpfs1/scratch/c7441284/ForceFieldModel/O2_NA_6/"
 Entering Link 1 = /usr/site/hpc/x86_64/glibc-2.17/broadwell/gaussian/g16_a.03/pgi-16.5/g16/l1.exe PID=   1949748.
  
 Copyright (c) 1988,1990,1992,1993,1995,1998,2003,2009,2016,
            Gaussian, Inc.  All Rights Reserved.
  
 This is part of the Gaussian(R) 16 program.  It is based on
 the Gaussian(R) 09 system (copyright 2009, Gaussian, Inc.),
 the Gaussian(R) 03 system (copyright 2003, Gaussian, Inc.),
 the Gaussian(R) 98 system (copyright 1998, Gaussian, Inc.),
 the Gaussian(R) 94 system (copyright 1995, Gaussian, Inc.),
 the Gaussian 92(TM) system (copyright 1992, Gaussian, Inc.),
 the Gaussian 90(TM) system (copyright 1990, Gaussian, Inc.),
 the Gaussian 88(TM) system (copyright 1988, Gaussian, Inc.),
 the Gaussian 86(TM) system (copyright 1986, Carnegie Mellon
 University), and the Gaussian 82(TM) system (copyright 1983,
 Carnegie Mellon University). Gaussian is a federally registered
 trademark of Gaussian, Inc.
  
 This software contains proprietary and confidential information,
 including trade secrets, belonging to Gaussian, Inc.
  
 This software is provided under written license and may be
 used, copied, transmitted, or stored only in accord with that
 written license.
  
 The following legend is applicable only to US Government
 contracts under FAR:
  
                    RESTRICTED RIGHTS LEGEND
  
 Use, reproduction and disclosure by the US Government is
 subject to restrictions as set forth in subparagraphs (a)
 and (c) of the Commercial Computer Software - Restricted
 Rights clause in FAR 52.227-19.
  
 Gaussian, Inc.
 340 Quinnipiac St., Bldg. 40, Wallingford CT 06492
  
  
 ---------------------------------------------------------------
 Warning -- This program may not be used in any manner that
 competes with the business of Gaussian, Inc. or will provide
 assistance to any competitor of Gaussian, Inc.  The licensee
 of this program is prohibited from giving any competitor of
 Gaussian, Inc. access to this program.  By using this program,
 the user acknowledges that Gaussian, Inc. is engaged in the
 business of creating and licensing software in the field of
 computational chemistry and represents and warrants to the
 licensee that it is not a competitor of Gaussian, Inc. and that
 it will not use this program in any manner prohibited above.
 ---------------------------------------------------------------
  

 Cite this work as:
 Gaussian 16, Revision A.03,
 M. J. Frisch, G. W. Trucks, H. B. Schlegel, G. E. Scuseria, 
 M. A. Robb, J. R. Cheeseman, G. Scalmani, V. Barone, 
 G. A. Petersson, H. Nakatsuji, X. Li, M. Caricato, A. V. Marenich, 
 J. Bloino, B. G. Janesko, R. Gomperts, B. Mennucci, H. P. Hratchian, 
 J. V. Ortiz, A. F. Izmaylov, J. L. Sonnenberg, D. Williams-Young, 
 F. Ding, F. Lipparini, F. Egidi, J. Goings, B. Peng, A. Petrone, 
 T. Henderson, D. Ranasinghe, V. G. Zakrzewski, J. Gao, N. Rega, 
 G. Zheng, W. Liang, M. Hada, M. Ehara, K. Toyota, R. Fukuda, 
 J. Hasegawa, M. Ishida, T. Nakajima, Y. Honda, O. Kitao, H. Nakai, 
 T. Vreven, K. Throssell, J. A. Montgomery, Jr., J. E. Peralta, 
 F. Ogliaro, M. J. Bearpark, J. J. Heyd, E. N. Brothers, K. N. Kudin, 
 V. N. Staroverov, T. A. Keith, R. Kobayashi, J. Normand, 
 K. Raghavachari, A. P. Rendell, J. C. Burant, S. S. Iyengar, 
 J. Tomasi, M. Cossi, J. M. Millam, M. Klene, C. Adamo, R. Cammi, 
 J. W. Ochterski, R. L. Martin, K. Morokuma, O. Farkas, 
 J. B. Foresman, and D. J. Fox, Gaussian, Inc., Wallingford CT, 2016.
 
 ******************************************
 Gaussian 16:  ES64L-G16RevA.03 25-Dec-2016
                15-Jan-2023 
 ******************************************
 %NProcShared=6
 Will use up to    6 processors via shared memory.
 %Mem=5GB
 %OldChk=O2_O2_184.chk
 %Chk=O2_O2_185.chk
 Copying data from "O2_O2_184.chk" to current chk file "O2_O2_185.chk"
 IOpt=  2 FromEx=T IUOpen= 4 IOptOp= 5 NList=   0 IFRang= 0 IUIn= 4 IUOut= 2.
 ---------------------------------------------------------------
 #p ROCCSD(T)/cc-pVTZ Guess=Read SCF=(VeryTight,CDIIS,VShift=10)
 ---------------------------------------------------------------
 1/38=1,172=1/1;
 2/12=2,17=6,18=5,40=1/2;
 3/5=16,6=1,11=2,25=1,30=1,116=101/1,2,3;
 4/5=1/1;
 5/5=2,10=10,17=3,22=12,38=6/2;
 8/5=-1,6=4,9=120000,10=1/1,4;
 9/5=7,14=2/13;
 6/7=2,8=2,9=2,10=2/1;
 99/5=1,9=1/99;
 Leave Link    1 at Sun Jan 15 07:11:43 2023, MaxMem=   671088640 cpu:               0.7 elap:               0.1
 (Enter /usr/site/hpc/x86_64/glibc-2.17/broadwell/gaussian/g16_a.03/pgi-16.5/g16/l101.exe)
 ---------
 O2_O2_185
 ---------
 Symbolic Z-matrix:
 Charge = -1 Multiplicity = 6
 O                     0.67619   0.        0. 
 O                    -0.67619   0.        0. 
 O                     6.23306   0.        0. 
 O                     4.88068   0.        0. 
 
 ITRead=  0  0  0  0
 MicOpt= -1 -1 -1 -1
 NAtoms=      4 NQM=        4 NQMF=       0 NMMI=      0 NMMIF=      0
                NMic=       0 NMicF=      0.
                    Isotopes and Nuclear Properties:
 (Nuclear quadrupole moments (NQMom) in fm**2, nuclear magnetic moments (NMagM)
  in nuclear magnetons)

  Atom         1           2           3           4
 IAtWgt=          16          16          16          16
 AtmWgt=  15.9949146  15.9949146  15.9949146  15.9949146
 NucSpn=           0           0           0           0
 AtZEff=  -0.0000000  -0.0000000  -0.0000000  -0.0000000
 NQMom=    0.0000000   0.0000000   0.0000000   0.0000000
 NMagM=    0.0000000   0.0000000   0.0000000   0.0000000
 AtZNuc=   8.0000000   8.0000000   8.0000000   8.0000000
 Leave Link  101 at Sun Jan 15 07:11:44 2023, MaxMem=   671088640 cpu:               0.6 elap:               0.1
 (Enter /usr/site/hpc/x86_64/glibc-2.17/broadwell/gaussian/g16_a.03/pgi-16.5/g16/l202.exe)
                          Input orientation:                          
 ---------------------------------------------------------------------
 Center     Atomic      Atomic             Coordinates (Angstroms)
 Number     Number       Type             X           Y           Z
 ---------------------------------------------------------------------
      1          8           0        0.676190    0.000000    0.000000
      2          8           0       -0.676190    0.000000    0.000000
      3          8           0        6.233059    0.000000    0.000000
      4          8           0        4.880679    0.000000    0.000000
 ---------------------------------------------------------------------
                    Distance matrix (angstroms):
                    1          2          3          4
     1  O    0.000000
     2  O    1.352380   0.000000
     3  O    5.556869   6.909249   0.000000
     4  O    4.204489   5.556869   1.352380   0.000000
 Stoichiometry    O4(1-,6)
 Framework group  D*H[C*(OO.OO)]
 Deg. of freedom     2
 Full point group                 D*H     NOp   8
 Largest Abelian subgroup         D2H     NOp   8
 Largest concise Abelian subgroup C2      NOp   2
                         Standard orientation:                         
 ---------------------------------------------------------------------
 Center     Atomic      Atomic             Coordinates (Angstroms)
 Number     Number       Type             X           Y           Z
 ---------------------------------------------------------------------
      1          8           0        0.000000    0.000000    2.102244
      2          8           0        0.000000    0.000000    3.454625
      3          8           0        0.000000    0.000000   -3.454625
      4          8           0        0.000000    0.000000   -2.102244
 ---------------------------------------------------------------------
 Rotational constants (GHZ):           0.0000000           0.9660174           0.9660174
 Leave Link  202 at Sun Jan 15 07:11:44 2023, MaxMem=   671088640 cpu:               0.1 elap:               0.0
 (Enter /usr/site/hpc/x86_64/glibc-2.17/broadwell/gaussian/g16_a.03/pgi-16.5/g16/l301.exe)
 Standard basis: CC-pVTZ (5D, 7F)
 Ernie: Thresh=  0.10000D-02 Tol=  0.10000D-05 Strict=F.
 Ernie:  12 primitive shells out of 104 were deleted.
 There are    32 symmetry adapted cartesian basis functions of AG  symmetry.
 There are     6 symmetry adapted cartesian basis functions of B1G symmetry.
 There are    16 symmetry adapted cartesian basis functions of B2G symmetry.
 There are    16 symmetry adapted cartesian basis functions of B3G symmetry.
 There are     6 symmetry adapted cartesian basis functions of AU  symmetry.
 There are    32 symmetry adapted cartesian basis functions of B1U symmetry.
 There are    16 symmetry adapted cartesian basis functions of B2U symmetry.
 There are    16 symmetry adapted cartesian basis functions of B3U symmetry.
 There are    26 symmetry adapted basis functions of AG  symmetry.
 There are     6 symmetry adapted basis functions of B1G symmetry.
 There are    14 symmetry adapted basis functions of B2G symmetry.
 There are    14 symmetry adapted basis functions of B3G symmetry.
 There are     6 symmetry adapted basis functions of AU  symmetry.
 There are    26 symmetry adapted basis functions of B1U symmetry.
 There are    14 symmetry adapted basis functions of B2U symmetry.
 There are    14 symmetry adapted basis functions of B3U symmetry.
   120 basis functions,   208 primitive gaussians,   140 cartesian basis functions
    19 alpha electrons       14 beta electrons
       nuclear repulsion energy        75.2316847661 Hartrees.
 IExCor=    0 DFT=F Ex=HF Corr=None ExCW=0 ScaHFX=  1.000000
 ScaDFX=  1.000000  1.000000  1.000000  1.000000 ScalE2=  1.000000  1.000000
 IRadAn=      5 IRanWt=     -1 IRanGd=            0 ICorTp=0 IEmpDi=  4
 NAtoms=    4 NActive=    4 NUniq=    2 SFac= 4.00D+00 NAtFMM=   60 NAOKFM=F Big=F
 Integral buffers will be    131072 words long.
 Raffenetti 2 integral format.
 Two-electron integral symmetry is turned on.
 Leave Link  301 at Sun Jan 15 07:11:44 2023, MaxMem=   671088640 cpu:               0.4 elap:               0.1
 (Enter /usr/site/hpc/x86_64/glibc-2.17/broadwell/gaussian/g16_a.03/pgi-16.5/g16/l302.exe)
 NPDir=0 NMtPBC=     1 NCelOv=     1 NCel=       1 NClECP=     1 NCelD=      1
         NCelK=      1 NCelE2=     1 NClLst=     1 CellRange=     0.0.
 One-electron integrals computed using PRISM.
 One-electron integral symmetry used in STVInt
 NBasis=   120 RedAO= T EigKep=  7.32D-03  NBF=    26     6    14    14     6    26    14    14
 NBsUse=   120 1.00D-06 EigRej= -1.00D+00 NBFU=    26     6    14    14     6    26    14    14
 Leave Link  302 at Sun Jan 15 07:11:44 2023, MaxMem=   671088640 cpu:               0.7 elap:               0.1
 (Enter /usr/site/hpc/x86_64/glibc-2.17/broadwell/gaussian/g16_a.03/pgi-16.5/g16/l303.exe)
 DipDrv:  MaxL=1.
 Leave Link  303 at Sun Jan 15 07:11:44 2023, MaxMem=   671088640 cpu:               0.2 elap:               0.1
 (Enter /usr/site/hpc/x86_64/glibc-2.17/broadwell/gaussian/g16_a.03/pgi-16.5/g16/l401.exe)
 Initial guess from the checkpoint file:  "O2_O2_185.chk"
 B after Tr=     0.000000    0.000000    0.000000
         Rot=    1.000000    0.000000    0.000000    0.000000 Ang=   0.00 deg.
 Guess basis will be translated and rotated to current coordinates.
 JPrj=2 DoOrth=T DoCkMO=T.
 Initial guess orbital symmetries:
       Occupied  (SGG) (SGU) (SGU) (SGG) (SGG) (SGU) (SGU) (SGG)
                 (SGG) (SGU) (PIU) (PIU) (PIG) (PIG) (PIU) (PIU)
                 (PIG) (PIG) (SGG)
       Virtual   (SGU) (SGG) (SGU) (PIU) (PIU) (PIG) (PIG) (SGG)
                 (SGU) (PIU) (PIU) (PIG) (PIG) (SGU) (SGG) (SGG)
                 (SGU) (PIU) (PIU) (PIG) (PIG) (DLTG) (DLTG) (DLTU)
                 (DLTU) (DLTG) (DLTG) (DLTU) (DLTU) (SGG) (SGU)
                 (PIU) (PIU) (PIG) (PIG) (SGG) (SGU) (PIU) (PIU)
                 (PIG) (PIG) (SGG) (SGU) (PIU) (PIU) (PIG) (PIG)
                 (SGU) (SGG) (PIU) (PIU) (PIG) (PIG) (DLTG) (DLTG)
                 (DLTU) (DLTU) (SGG) (SGU) (PHIG) (PHIG) (PHIU)
                 (PHIU) (PHIU) (PHIU) (PHIG) (PHIG) (DLTG) (DLTG)
                 (DLTU) (DLTU) (PIU) (PIU) (PIG) (PIG) (DLTG) (DLTG)
                 (DLTU) (DLTU) (DLTG) (DLTG) (DLTU) (DLTU) (PIU)
                 (PIU) (PIG) (PIG) (SGG) (SGU) (SGG) (SGU) (SGG)
                 (SGU) (PIU) (PIU) (PIG) (PIG) (SGG) (SGU) (SGG)
                 (SGU)
 The electronic state of the initial guess is 6-SGG.
 Leave Link  401 at Sun Jan 15 07:11:44 2023, MaxMem=   671088640 cpu:               0.8 elap:               0.2
 (Enter /usr/site/hpc/x86_64/glibc-2.17/broadwell/gaussian/g16_a.03/pgi-16.5/g16/l502.exe)
 Keep R1 and R2 ints in memory in symmetry-blocked form, NReq=29773135.
 FoFCou: FMM=F IPFlag=           0 FMFlag=           0 FMFlg1=           0
         NFxFlg=           0 DoJE=F BraDBF=F KetDBF=F FulRan=T
         wScrn=  0.000000 ICntrl=       600 IOpCl=  0 I1Cent=           0 NGrid=           0
         NMat0=    1 NMatS0=   7260 NMatT0=    0 NMatD0=    1 NMtDS0=    0 NMtDT0=    0
 Petite list used in FoFCou.
 Restricted open shell SCF:
 Using DIIS extrapolation, IDIIS=    10.
 NGot=   671088640 LenX=   664240612 LenY=   664220571
 Requested convergence on RMS density matrix=1.00D-08 within 128 cycles.
 Requested convergence on MAX density matrix=1.00D-06.
 Requested convergence on             energy=1.00D-06.
 Virtual orbitals will be shifted by   0.010 hartree.
 No special actions if energy rises.

 Cycle   1  Pass 1  IDiag  1:
 E= -298.989589195105    
 DIIS: error= 7.47D-05 at cycle   1 NSaved=   1.
 NSaved= 1 IEnMin= 1 EnMin= -298.989589195105     IErMin= 1 ErrMin= 7.47D-05
 ErrMax= 7.47D-05  0.00D+00 EMaxC= 1.00D+00 BMatC= 1.89D-07 BMatP= 1.89D-07
 IDIUse=1 WtCom= 1.00D+00 WtEn= 0.00D+00
 Coeff-Com:  0.100D+01
 Coeff:      0.100D+01
 Gap=     0.147 Goal=   None    Shift=    0.010
 RMSDP=4.67D-05 MaxDP=1.30D-03              OVMax= 5.94D-04

 Cycle   2  Pass 1  IDiag  1:
 E= -298.989589556569     Delta-E=       -0.000000361464 Rises=F Damp=F
 DIIS: error= 2.68D-05 at cycle   2 NSaved=   2.
 NSaved= 2 IEnMin= 2 EnMin= -298.989589556569     IErMin= 2 ErrMin= 2.68D-05
 ErrMax= 2.68D-05  0.00D+00 EMaxC= 1.00D+00 BMatC= 5.52D-08 BMatP= 1.89D-07
 IDIUse=1 WtCom= 1.00D+00 WtEn= 0.00D+00
 Coeff-Com: -0.243D-01 0.102D+01
 Coeff:     -0.243D-01 0.102D+01
 Gap=     0.147 Goal=   None    Shift=    0.010
 RMSDP=1.36D-05 MaxDP=3.95D-04 DE=-3.61D-07 OVMax= 2.15D-04

 Cycle   3  Pass 1  IDiag  1:
 E= -298.989589566307     Delta-E=       -0.000000009739 Rises=F Damp=F
 DIIS: error= 3.56D-05 at cycle   3 NSaved=   3.
 NSaved= 3 IEnMin= 3 EnMin= -298.989589566307     IErMin= 2 ErrMin= 2.68D-05
 ErrMax= 3.56D-05  0.00D+00 EMaxC= 1.00D+00 BMatC= 7.54D-08 BMatP= 5.52D-08
 IDIUse=1 WtCom= 1.00D+00 WtEn= 0.00D+00
 Coeff-Com: -0.245D+00 0.729D+00 0.516D+00
 Coeff:     -0.245D+00 0.729D+00 0.516D+00
 Gap=     0.147 Goal=   None    Shift=    0.010
 RMSDP=6.06D-06 MaxDP=1.85D-04 DE=-9.74D-09 OVMax= 9.16D-05

 Cycle   4  Pass 1  IDiag  1:
 E= -298.989589625127     Delta-E=       -0.000000058820 Rises=F Damp=F
 DIIS: error= 1.57D-05 at cycle   4 NSaved=   4.
 NSaved= 4 IEnMin= 4 EnMin= -298.989589625127     IErMin= 4 ErrMin= 1.57D-05
 ErrMax= 1.57D-05  0.00D+00 EMaxC= 1.00D+00 BMatC= 1.17D-08 BMatP= 5.52D-08
 IDIUse=1 WtCom= 1.00D+00 WtEn= 0.00D+00
 Coeff-Com: -0.247D-01-0.937D-01 0.267D+00 0.851D+00
 Coeff:     -0.247D-01-0.937D-01 0.267D+00 0.851D+00
 Gap=     0.147 Goal=   None    Shift=    0.010
 RMSDP=3.04D-06 MaxDP=8.09D-05 DE=-5.88D-08 OVMax= 4.60D-05

 Cycle   5  Pass 1  IDiag  1:
 E= -298.989589631515     Delta-E=       -0.000000006388 Rises=F Damp=F
 DIIS: error= 6.26D-06 at cycle   5 NSaved=   5.
 NSaved= 5 IEnMin= 5 EnMin= -298.989589631515     IErMin= 5 ErrMin= 6.26D-06
 ErrMax= 6.26D-06  0.00D+00 EMaxC= 1.00D+00 BMatC= 1.86D-09 BMatP= 1.17D-08
 IDIUse=1 WtCom= 1.00D+00 WtEn= 0.00D+00
 Coeff-Com:  0.231D-01-0.140D+00 0.951D-01 0.119D+00 0.903D+00
 Coeff:      0.231D-01-0.140D+00 0.951D-01 0.119D+00 0.903D+00
 Gap=     0.147 Goal=   None    Shift=    0.010
 RMSDP=5.13D-07 MaxDP=1.45D-05 DE=-6.39D-09 OVMax= 9.53D-06

 Cycle   6  Pass 1  IDiag  1:
 E= -298.989589632398     Delta-E=       -0.000000000883 Rises=F Damp=F
 DIIS: error= 4.27D-06 at cycle   6 NSaved=   6.
 NSaved= 6 IEnMin= 6 EnMin= -298.989589632398     IErMin= 6 ErrMin= 4.27D-06
 ErrMax= 4.27D-06  0.00D+00 EMaxC= 1.00D+00 BMatC= 8.28D-10 BMatP= 1.86D-09
 IDIUse=1 WtCom= 1.00D+00 WtEn= 0.00D+00
 Coeff-Com:  0.624D-03-0.625D-02 0.596D-01-0.123D+00-0.705D-01 0.114D+01
 Coeff:      0.624D-03-0.625D-02 0.596D-01-0.123D+00-0.705D-01 0.114D+01
 Gap=     0.147 Goal=   None    Shift=    0.010
 RMSDP=1.35D-07 MaxDP=2.87D-06 DE=-8.83D-10 OVMax= 4.97D-06

 Cycle   7  Pass 1  IDiag  1:
 E= -298.989589632862     Delta-E=       -0.000000000464 Rises=F Damp=F
 DIIS: error= 3.27D-06 at cycle   7 NSaved=   7.
 NSaved= 7 IEnMin= 7 EnMin= -298.989589632862     IErMin= 7 ErrMin= 3.27D-06
 ErrMax= 3.27D-06  0.00D+00 EMaxC= 1.00D+00 BMatC= 5.02D-10 BMatP= 8.28D-10
 IDIUse=1 WtCom= 1.00D+00 WtEn= 0.00D+00
 Coeff-Com:  0.453D-02-0.404D-01 0.429D-01 0.562D-01 0.258D+00-0.208D+01
 Coeff-Com:  0.276D+01
 Coeff:      0.453D-02-0.404D-01 0.429D-01 0.562D-01 0.258D+00-0.208D+01
 Coeff:      0.276D+01
 Gap=     0.147 Goal=   None    Shift=    0.010
 RMSDP=2.32D-07 MaxDP=3.64D-06 DE=-4.64D-10 OVMax= 1.01D-05

 Cycle   8  Pass 1  IDiag  1:
 E= -298.989589633496     Delta-E=       -0.000000000634 Rises=F Damp=F
 DIIS: error= 2.16D-06 at cycle   8 NSaved=   8.
 NSaved= 8 IEnMin= 8 EnMin= -298.989589633496     IErMin= 8 ErrMin= 2.16D-06
 ErrMax= 2.16D-06  0.00D+00 EMaxC= 1.00D+00 BMatC= 2.22D-10 BMatP= 5.02D-10
 IDIUse=1 WtCom= 1.00D+00 WtEn= 0.00D+00
 Coeff-Com:  0.387D-02-0.223D-01 0.696D-02 0.484D-01 0.141D+00-0.202D+00
 Coeff-Com: -0.193D+01 0.295D+01
 Coeff:      0.387D-02-0.223D-01 0.696D-02 0.484D-01 0.141D+00-0.202D+00
 Coeff:     -0.193D+01 0.295D+01
 Gap=     0.147 Goal=   None    Shift=    0.010
 RMSDP=4.40D-07 MaxDP=6.68D-06 DE=-6.34D-10 OVMax= 1.98D-05

 Cycle   9  Pass 1  IDiag  1:
 E= -298.989589634084     Delta-E=       -0.000000000588 Rises=F Damp=F
 DIIS: error= 4.61D-07 at cycle   9 NSaved=   9.
 NSaved= 9 IEnMin= 9 EnMin= -298.989589634084     IErMin= 9 ErrMin= 4.61D-07
 ErrMax= 4.61D-07  0.00D+00 EMaxC= 1.00D+00 BMatC= 7.89D-12 BMatP= 2.22D-10
 IDIUse=1 WtCom= 1.00D+00 WtEn= 0.00D+00
 Coeff-Com: -0.652D-03 0.590D-02-0.316D-02-0.141D-01-0.484D-01 0.329D+00
 Coeff-Com: -0.146D+00-0.579D+00 0.146D+01
 Coeff:     -0.652D-03 0.590D-02-0.316D-02-0.141D-01-0.484D-01 0.329D+00
 Coeff:     -0.146D+00-0.579D+00 0.146D+01
 Gap=     0.147 Goal=   None    Shift=    0.010
 RMSDP=1.46D-07 MaxDP=2.39D-06 DE=-5.88D-10 OVMax= 6.70D-06

 Cycle  10  Pass 1  IDiag  1:
 E= -298.989589634110     Delta-E=       -0.000000000027 Rises=F Damp=F
 DIIS: error= 1.97D-07 at cycle  10 NSaved=  10.
 NSaved=10 IEnMin=10 EnMin= -298.989589634110     IErMin=10 ErrMin= 1.97D-07
 ErrMax= 1.97D-07  0.00D+00 EMaxC= 1.00D+00 BMatC= 1.07D-12 BMatP= 7.89D-12
 IDIUse=1 WtCom= 1.00D+00 WtEn= 0.00D+00
 Coeff-Com: -0.169D-03 0.131D-02-0.825D-03-0.268D-02-0.932D-02 0.386D-01
 Coeff-Com:  0.739D-01-0.143D+00 0.165D+00 0.878D+00
 Coeff:     -0.169D-03 0.131D-02-0.825D-03-0.268D-02-0.932D-02 0.386D-01
 Coeff:      0.739D-01-0.143D+00 0.165D+00 0.878D+00
 Gap=     0.147 Goal=   None    Shift=    0.010
 RMSDP=2.54D-08 MaxDP=5.43D-07 DE=-2.67D-11 OVMax= 1.04D-06

 Cycle  11  Pass 1  IDiag  1:
 E= -298.989589634115     Delta-E=       -0.000000000005 Rises=F Damp=F
 DIIS: error= 1.05D-07 at cycle  11 NSaved=  11.
 NSaved=11 IEnMin=11 EnMin= -298.989589634115     IErMin=11 ErrMin= 1.05D-07
 ErrMax= 1.05D-07  0.00D+00 EMaxC= 1.00D+00 BMatC= 2.12D-13 BMatP= 1.07D-12
 IDIUse=1 WtCom= 1.00D+00 WtEn= 0.00D+00
 Coeff-Com: -0.288D-03 0.189D-02-0.128D-02-0.320D-02-0.111D-01 0.775D-02
 Coeff-Com:  0.228D+00-0.222D+00-0.250D-01 0.222D+01-0.119D+01
 Coeff:     -0.288D-03 0.189D-02-0.128D-02-0.320D-02-0.111D-01 0.775D-02
 Coeff:      0.228D+00-0.222D+00-0.250D-01 0.222D+01-0.119D+01
 Gap=     0.147 Goal=   None    Shift=    0.010
 RMSDP=1.25D-08 MaxDP=3.67D-07 DE=-4.89D-12 OVMax= 3.27D-07

 Cycle  12  Pass 1  IDiag  1:
 E= -298.989589634112     Delta-E=        0.000000000004 Rises=F Damp=F
 DIIS: error= 1.25D-07 at cycle  12 NSaved=  12.
 NSaved=12 IEnMin=11 EnMin= -298.989589634115     IErMin=11 ErrMin= 1.05D-07
 ErrMax= 1.25D-07  0.00D+00 EMaxC= 1.00D+00 BMatC= 3.35D-13 BMatP= 2.12D-13
 IDIUse=1 WtCom= 1.00D+00 WtEn= 0.00D+00
 Coeff-Com:  0.126D-03-0.118D-02-0.107D-03 0.449D-02 0.123D-01-0.120D+00
 Coeff-Com:  0.181D+00 0.124D+00-0.521D+00 0.110D+01-0.275D+01 0.297D+01
 Coeff:      0.126D-03-0.118D-02-0.107D-03 0.449D-02 0.123D-01-0.120D+00
 Coeff:      0.181D+00 0.124D+00-0.521D+00 0.110D+01-0.275D+01 0.297D+01
 Gap=     0.147 Goal=   None    Shift=    0.010
 RMSDP=2.77D-08 MaxDP=8.13D-07 DE= 3.75D-12 OVMax= 6.62D-07

 Cycle  13  Pass 1  IDiag  1:
 E= -298.989589634108     Delta-E=        0.000000000004 Rises=F Damp=F
 DIIS: error= 1.10D-08 at cycle  13 NSaved=  13.
 NSaved=13 IEnMin=11 EnMin= -298.989589634115     IErMin=13 ErrMin= 1.10D-08
 ErrMax= 1.10D-08  0.00D+00 EMaxC= 1.00D+00 BMatC= 2.29D-15 BMatP= 2.12D-13
 IDIUse=1 WtCom= 1.00D+00 WtEn= 0.00D+00
 Coeff-Com:  0.941D-06 0.696D-04-0.116D-03 0.106D-05-0.103D-02 0.158D-01
 Coeff-Com: -0.468D-01 0.155D-01 0.567D-01-0.252D+00 0.131D+00-0.636D-01
 Coeff-Com:  0.115D+01
 Coeff:      0.941D-06 0.696D-04-0.116D-03 0.106D-05-0.103D-02 0.158D-01
 Coeff:     -0.468D-01 0.155D-01 0.567D-01-0.252D+00 0.131D+00-0.636D-01
 Coeff:      0.115D+01
 Gap=     0.147 Goal=   None    Shift=    0.010
 RMSDP=2.81D-09 MaxDP=8.05D-08 DE= 3.69D-12 OVMax= 4.05D-08

 SCF Done:  E(ROHF) =  -298.989589634     A.U. after   13 cycles
            NFock= 13  Conv=0.28D-08     -V/T= 1.9995
 <Sx>= 0.0000 <Sy>= 0.0000 <Sz>= 2.5000 <S**2>= 8.7500 S= 2.5000
 <L.S>= 0.000000000000E+00
 KE= 2.991442089057D+02 PE=-8.690290683911D+02 EE= 1.956635850852D+02
 Annihilation of the first spin contaminant:
 S**2 before annihilation     8.7500,   after     8.7500
 Leave Link  502 at Sun Jan 15 07:11:45 2023, MaxMem=   671088640 cpu:               6.6 elap:               1.2
 (Enter /usr/site/hpc/x86_64/glibc-2.17/broadwell/gaussian/g16_a.03/pgi-16.5/g16/l801.exe)
 Windowed orbitals will be sorted by symmetry type.
 GenMOA:  NOpAll=  8 NOp2=8 NOpUse=  8 JSym2X=1
 FoFJK:  IHMeth= 1 ICntrl=       0 DoSepK=F KAlg= 0 I1Cent=           0 FoldK=F
 IRaf=         0 NMat=       1 IRICut=       1 DoRegI=T DoRafI=F ISym2E= 1 IDoP0=0 IntGTp=1.
 FoFCou: FMM=F IPFlag=           0 FMFlag=      100000 FMFlg1=           0
         NFxFlg=           0 DoJE=F BraDBF=F KetDBF=F FulRan=T
         wScrn=  0.000000 ICntrl=         0 IOpCl=  1 I1Cent=           0 NGrid=           0
         NMat0=    1 NMatS0=      1 NMatT0=    0 NMatD0=    1 NMtDS0=    0 NMtDT0=    0
 Petite list used in FoFCou.
 <Sx>= 0.0000 <Sy>= 0.0000 <Sz>= 2.5000 <S**2>= 8.7500 S= 2.5000
 ExpMin= 2.14D-01 ExpMax= 1.53D+04 ExpMxC= 5.22D+02 IAcc=3 IRadAn=         5 AccDes= 0.00D+00
 HarFok:  IExCor=  205 AccDes= 0.00D+00 IRadAn=         5 IDoV=-2 UseB2=F ITyADJ=14
 ICtDFT= 12500011 ScaDFX=  1.000000  1.000000  1.000000  1.000000
 Largest valence mixing into a core orbital is  1.18D-04
 Largest core mixing into a valence orbital is  1.96D-05
 Largest valence mixing into a core orbital is  1.48D-04
 Largest core mixing into a valence orbital is  4.59D-05
 Range of M.O.s used for correlation:     5   120
 NBasis=   120 NAE=    19 NBE=    14 NFC=     4 NFV=     0
 NROrb=    116 NOA=    15 NOB=    10 NVA=   101 NVB=   106
 Singles contribution to E2=   -0.3301916846D-01
 Leave Link  801 at Sun Jan 15 07:11:46 2023, MaxMem=   671088640 cpu:               2.0 elap:               0.4
 (Enter /usr/site/hpc/x86_64/glibc-2.17/broadwell/gaussian/g16_a.03/pgi-16.5/g16/l804.exe)
 Open-shell transformation, MDV=   671088640 ITran=4 ISComp=2.
 Unit  1 TFree=        725305 TCopy=        511934.
 Semi-Direct transformation.
 ModeAB=           4 MOrb=            15 LenV=     670527320
 LASXX=      1361989 LTotXX=     1361989 LenRXX=     2790583
 LTotAB=     1428594 MaxLAS=     5985600 LenRXY=           0
 NonZer=     4152572 LenScr=     6291456 LnRSAI=     5985600
 LnScr1=     9437184 LExtra=           0 Total=     24504823
 MaxDsk=          -1 SrtSym=           T ITran=            4
 DoSDTr:  NPSUse=  6
 JobTyp=1 Pass  1:  I=   1 to  15.
 (rs|ai) integrals will be sorted in core.
 Complete sort for first half transformation.
 First half transformation complete.
 Begin second half transformation for I=  10.
 Complete sort for second half transformation.
 Second half transformation complete.
 ModeAB=           4 MOrb=            10 LenV=     670527320
 LASXX=       943222 LTotXX=      943222 LenRXX=     1685260
 LTotAB=      742038 MaxLAS=     3990400 LenRXY=           0
 NonZer=     2628482 LenScr=     4194304 LnRSAI=     3990400
 LnScr1=     6291456 LExtra=           0 Total=     16161420
 MaxDsk=          -1 SrtSym=           T ITran=            4
 DoSDTr:  NPSUse=  6
 JobTyp=2 Pass  1:  I=   1 to  10.
 (rs|ai) integrals will be sorted in core.
 Complete sort for first half transformation.
 First half transformation complete.
 Begin second half transformation for I=  10.
 Complete sort for second half transformation.
 Second half transformation complete.
 Spin components of T(2) and E(2):
     alpha-alpha T2 =       0.4194770142D-01 E2=     -0.1571122914D+00
     alpha-beta  T2 =       0.2008239791D+00 E2=     -0.7100573756D+00
     beta-beta   T2 =       0.8889373503D-01 E2=     -0.1762253171D+00
 ANorm=    0.1162806991D+01
 E2 =    -0.1076414153D+01 EUMP2 =    -0.30006600378673D+03
 (S**2,0)=  0.87500D+01           (S**2,1)=  0.87500D+01
 E(PUHF)=      -0.29898958963D+03        E(PMP2)=      -0.30006600379D+03
 Leave Link  804 at Sun Jan 15 07:11:49 2023, MaxMem=   671088640 cpu:              17.4 elap:               3.0
 (Enter /usr/site/hpc/x86_64/glibc-2.17/broadwell/gaussian/g16_a.03/pgi-16.5/g16/l913.exe)
 CIDS:  MDV=   671088640.
 Frozen-core window:  NFC=   4 NFV=   0.
 IFCWin=0 IBDFC=1 NFBD=     0     0 NFCmp=     0     0 NFFFC=     0     0
 Using original routines for 1st iteration.
 Using DD4UQ or CC4UQ for 2nd and later iterations.
 Keep R2 and R3 ints in memory in symmetry-blocked form, NReq=29781592.
 FoFCou: FMM=F IPFlag=           0 FMFlag=           0 FMFlg1=           0
         NFxFlg=           0 DoJE=F BraDBF=F KetDBF=F FulRan=T
         wScrn=  0.000000 ICntrl=       600 IOpCl=  0 I1Cent=           0 NGrid=           0
         NMat0=    1 NMatS0=   7260 NMatT0=    0 NMatD0=    1 NMtDS0=    0 NMtDT0=    0
 Petite list used in FoFCou.
 CIDS: In Core Option IDoMem=           1.
 CCSD(T)
 =======
 Iterations=  50 Convergence= 0.100D-06
 Produce multiple copies of IABC intergrals
 Iteration Nr.   1
 **********************
 DD1Dir will call FoFMem   1 times, MxPair=       450
 NAB=   150 NAA=   105 NBB=    45.
 DD1Dir will call FoFMem   1 times, MxPair=       450
 NAB=   150 NAA=   105 NBB=    45.
 MP4(R+Q)= -0.68809393D-01
 Maximum subspace dimension=  5
 A-vector RMS=  6.6969444D-04 Max=  9.6866594D-03 conv= 1.00D-05.
 RLE energy=       -1.0415220939
 E3=        0.10347414D+00        EROMP3=      -0.29996252965D+03
 E4(SDQ)=  -0.35439179D-01        ROMP4(SDQ)=  -0.29999796883D+03
 VARIATIONAL ENERGIES WITH THE FIRST-ORDER WAVEFUNCTION:
 DE(Corr)=  -1.0402842     E(Corr)=     -300.02987379    
 NORM(A)=   0.11471463D+01
 Iteration Nr.   2
 **********************
 DD1Dir will call FoFMem   1 times, MxPair=       450
 NAB=   150 NAA=   105 NBB=    45.
 A-vector RMS=  3.4414797D-03 Max=  1.9158760D-02 conv= 1.00D-05.
 RLE energy=       -0.9989121389
 DE(Corr)= -0.94131712     E(CORR)=     -299.93090675     Delta= 9.90D-02
 NORM(A)=   0.11315140D+01
 Iteration Nr.   3
 **********************
 DD1Dir will call FoFMem   1 times, MxPair=       450
 NAB=   150 NAA=   105 NBB=    45.
 A-vector RMS=  1.5507434D-03 Max=  9.2128844D-03 conv= 1.00D-05.
 RLE energy=       -1.0063295554
 DE(Corr)= -0.96954374     E(CORR)=     -299.95913338     Delta=-2.82D-02
 NORM(A)=   0.11349590D+01
 Iteration Nr.   4
 **********************
 DD1Dir will call FoFMem   1 times, MxPair=       450
 NAB=   150 NAA=   105 NBB=    45.
 A-vector RMS=  1.1878605D-03 Max=  8.4131434D-03 conv= 1.00D-05.
 RLE energy=       -0.9950565541
 DE(Corr)= -0.97841949     E(CORR)=     -299.96800913     Delta=-8.88D-03
 NORM(A)=   0.11349492D+01
 Iteration Nr.   5
 **********************
 DD1Dir will call FoFMem   1 times, MxPair=       450
 NAB=   150 NAA=   105 NBB=    45.
 A-vector RMS=  2.1843470D-04 Max=  3.0646267D-03 conv= 1.00D-05.
 RLE energy=       -0.9945712893
 DE(Corr)= -0.99466694     E(CORR)=     -299.98425658     Delta=-1.62D-02
 NORM(A)=   0.11360171D+01
 Iteration Nr.   6
 **********************
 DD1Dir will call FoFMem   1 times, MxPair=       450
 NAB=   150 NAA=   105 NBB=    45.
 A-vector RMS=  1.2450770D-04 Max=  1.2723318D-03 conv= 1.00D-05.
 RLE energy=       -0.9957022944
 DE(Corr)= -0.99662273     E(CORR)=     -299.98621237     Delta=-1.96D-03
 NORM(A)=   0.11364239D+01
 Iteration Nr.   7
 **********************
 DD1Dir will call FoFMem   1 times, MxPair=       450
 NAB=   150 NAA=   105 NBB=    45.
 A-vector RMS=  4.7328406D-05 Max=  7.2751967D-04 conv= 1.00D-05.
 RLE energy=       -0.9955276948
 DE(Corr)= -0.99547510     E(CORR)=     -299.98506474     Delta= 1.15D-03
 NORM(A)=   0.11364611D+01
 Iteration Nr.   8
 **********************
 DD1Dir will call FoFMem   1 times, MxPair=       450
 NAB=   150 NAA=   105 NBB=    45.
 A-vector RMS=  1.8838996D-05 Max=  2.3507925D-04 conv= 1.00D-05.
 RLE energy=       -0.9955142985
 DE(Corr)= -0.99553684     E(CORR)=     -299.98512647     Delta=-6.17D-05
 NORM(A)=   0.11364725D+01
 Iteration Nr.   9
 **********************
 DD1Dir will call FoFMem   1 times, MxPair=       450
 NAB=   150 NAA=   105 NBB=    45.
 A-vector RMS=  8.8882205D-06 Max=  1.0555791D-04 conv= 1.00D-05.
 RLE energy=       -0.9955207302
 DE(Corr)= -0.99551822     E(CORR)=     -299.98510786     Delta= 1.86D-05
 NORM(A)=   0.11364782D+01
 Iteration Nr.  10
 **********************
 DD1Dir will call FoFMem   1 times, MxPair=       450
 NAB=   150 NAA=   105 NBB=    45.
 A-vector RMS=  4.8486533D-06 Max=  5.9425423D-05 conv= 1.00D-05.
 RLE energy=       -0.9955240237
 DE(Corr)= -0.99551665     E(CORR)=     -299.98510628     Delta= 1.57D-06
 NORM(A)=   0.11364822D+01
 Iteration Nr.  11
 **********************
 DD1Dir will call FoFMem   1 times, MxPair=       450
 NAB=   150 NAA=   105 NBB=    45.
 A-vector RMS=  2.8604050D-06 Max=  4.6520752D-05 conv= 1.00D-05.
 RLE energy=       -0.9955169541
 DE(Corr)= -0.99551784     E(CORR)=     -299.98510748     Delta=-1.20D-06
 NORM(A)=   0.11364797D+01
 Iteration Nr.  12
 **********************
 DD1Dir will call FoFMem   1 times, MxPair=       450
 NAB=   150 NAA=   105 NBB=    45.
 A-vector RMS=  1.2982979D-06 Max=  1.9802809D-05 conv= 1.00D-05.
 RLE energy=       -0.9955200018
 DE(Corr)= -0.99551986     E(CORR)=     -299.98510949     Delta=-2.02D-06
 NORM(A)=   0.11364815D+01
 Iteration Nr.  13
 **********************
 DD1Dir will call FoFMem   1 times, MxPair=       450
 NAB=   150 NAA=   105 NBB=    45.
 A-vector RMS=  4.4671400D-07 Max=  5.0148605D-06 conv= 1.00D-05.
 RLE energy=       -0.9955199801
 DE(Corr)= -0.99551980     E(CORR)=     -299.98510943     Delta= 6.33D-08
 NORM(A)=   0.11364817D+01
 CI/CC converged in   13 iterations to DelEn= 6.33D-08 Conv= 1.00D-07 ErrA1= 4.47D-07 Conv= 1.00D-05
 Wavefunction amplitudes converged. E(Corr)=     -299.98510943    
 Largest amplitude= 6.09D-02
 Time for triples=      727.44 seconds.
 T4(CCSD)= -0.51279348D-01
 T5(CCSD)= -0.87775072D-03
 CCSD(T)= -0.30003726653D+03
 Discarding MO integrals.
 Leave Link  913 at Sun Jan 15 07:14:12 2023, MaxMem=   671088640 cpu:             846.2 elap:             143.3
 (Enter /usr/site/hpc/x86_64/glibc-2.17/broadwell/gaussian/g16_a.03/pgi-16.5/g16/l601.exe)
 Copying SCF densities to generalized density rwf, IOpCl= 0 IROHF=1.

 **********************************************************************

            Population analysis using the SCF density.

 **********************************************************************

 Orbital symmetries:
       Occupied  (SGG) (SGU) (SGU) (SGG) (SGG) (SGU) (SGU) (SGG)
                 (SGG) (SGU) (PIU) (PIU) (PIG) (PIG) (PIU) (PIU)
                 (PIG) (PIG) (SGG)
       Virtual   (SGU) (SGG) (SGU) (PIU) (PIU) (PIG) (PIG) (SGG)
                 (SGU) (PIU) (PIU) (PIG) (PIG) (SGU) (SGG) (SGG)
                 (SGU) (PIU) (PIU) (PIG) (PIG) (DLTG) (DLTG) (DLTU)
                 (DLTU) (DLTG) (DLTG) (DLTU) (DLTU) (SGG) (SGU)
                 (PIU) (PIU) (PIG) (PIG) (SGG) (SGU) (PIU) (PIU)
                 (PIG) (PIG) (SGG) (SGU) (PIU) (PIU) (PIG) (PIG)
                 (SGG) (SGU) (PIU) (PIU) (PIG) (PIG) (DLTG) (DLTG)
                 (DLTU) (DLTU) (SGG) (SGU) (PHIG) (PHIG) (PHIU)
                 (PHIU) (PHIU) (PHIU) (PHIG) (PHIG) (DLTG) (DLTG)
                 (DLTU) (DLTU) (PIU) (PIU) (PIG) (PIG) (DLTG) (DLTG)
                 (DLTU) (DLTU) (DLTG) (DLTG) (DLTU) (DLTU) (PIU)
                 (PIU) (PIG) (PIG) (SGG) (SGU) (SGG) (SGU) (SGG)
                 (SGU) (PIU) (PIU) (PIG) (PIG) (SGG) (SGU) (SGG)
                 (SGU)
 The electronic state is 6-SGG.
 Alpha  occ. eigenvalues --  -20.50594 -20.50593 -20.47771 -20.47771  -1.36282
 Alpha  occ. eigenvalues --   -1.36278  -1.00300  -1.00098  -0.52504  -0.52504
 Alpha  occ. eigenvalues --   -0.52495  -0.52495  -0.51587  -0.51086  -0.32499
 Alpha  occ. eigenvalues --   -0.32499  -0.32482  -0.32482   0.18775
 Alpha virt. eigenvalues --    0.30262   0.82195   0.88541   0.90078   0.90078
 Alpha virt. eigenvalues --    0.90312   0.90312   0.93273   0.98850   0.99289
 Alpha virt. eigenvalues --    0.99289   0.99862   0.99862   1.10514   1.10534
 Alpha virt. eigenvalues --    1.61140   1.65167   1.70439   1.70439   1.70451
 Alpha virt. eigenvalues --    1.70451   1.71438   1.71438   1.71438   1.71438
 Alpha virt. eigenvalues --    2.03316   2.03316   2.03316   2.03316   2.41355
 Alpha virt. eigenvalues --    2.42277   2.57002   2.57002   2.57125   2.57125
 Alpha virt. eigenvalues --    2.66675   2.76135   4.09146   4.09146   4.09281
 Alpha virt. eigenvalues --    4.09281   4.17861   4.20631   4.32500   4.32500
 Alpha virt. eigenvalues --    4.32771   4.32771   5.19362   5.19366   5.28204
 Alpha virt. eigenvalues --    5.28204   5.28225   5.28225   5.34975   5.34975
 Alpha virt. eigenvalues --    5.34975   5.34975   5.42111   5.42250   5.62541
 Alpha virt. eigenvalues --    5.62541   5.62541   5.62541   5.74690   5.74690
 Alpha virt. eigenvalues --    5.74690   5.74690   6.09321   6.09321   6.09321
 Alpha virt. eigenvalues --    6.09321   6.71075   6.71075   6.71085   6.71085
 Alpha virt. eigenvalues --    6.74790   6.74790   6.74791   6.74791   6.92584
 Alpha virt. eigenvalues --    6.92584   6.92584   6.92584   6.96120   6.96120
 Alpha virt. eigenvalues --    6.96120   6.96120   6.98340   6.99391   7.16785
 Alpha virt. eigenvalues --    7.26647   7.45126   7.45788   7.60412   7.60412
 Alpha virt. eigenvalues --    7.60455   7.60455   8.29265   8.29276  10.61432
 Alpha virt. eigenvalues --   10.61456
          Condensed to atoms (all electrons):
               1          2          3          4
     1  O    9.124889  -0.943429   0.000074   0.004446
     2  O   -0.943429   9.257374   0.000000   0.000074
     3  O    0.000074   0.000000   9.257374  -0.943429
     4  O    0.004446   0.000074  -0.943429   9.124889
          Atomic-Atomic Spin Densities.
               1          2          3          4
     1  O    2.765184  -1.441565   0.000073   0.004186
     2  O   -1.441565   2.613614   0.000000   0.000073
     3  O    0.000073   0.000000   2.613614  -1.441565
     4  O    0.004186   0.000073  -1.441565   2.765184
 Mulliken charges and spin densities:
               1          2
     1  O   -0.185980   1.327878
     2  O   -0.314020   1.172122
     3  O   -0.314020   1.172122
     4  O   -0.185980   1.327878
 Sum of Mulliken charges =  -1.00000   5.00000
 Mulliken charges and spin densities with hydrogens summed into heavy atoms:
               1          2
     1  O   -0.185980   1.327878
     2  O   -0.314020   1.172122
     3  O   -0.314020   1.172122
     4  O   -0.185980   1.327878
 Electronic spatial extent (au):  <R**2>=           1018.6657
 Charge=             -1.0000 electrons
 Dipole moment (field-independent basis, Debye):
    X=             -0.0000    Y=              0.0000    Z=              0.0000  Tot=              0.0000
 Quadrupole moment (field-independent basis, Debye-Ang):
   XX=            -22.1785   YY=            -22.1785   ZZ=            -68.9681
   XY=             -0.0000   XZ=              0.0000   YZ=             -0.0000
 Traceless Quadrupole moment (field-independent basis, Debye-Ang):
   XX=             15.5965   YY=             15.5965   ZZ=            -31.1931
   XY=             -0.0000   XZ=              0.0000   YZ=             -0.0000
 Octapole moment (field-independent basis, Debye-Ang**2):
  XXX=             -0.0000  YYY=             -0.0000  ZZZ=             -0.0000  XYY=             -0.0000
  XXY=              0.0000  XXZ=             -0.0000  XZZ=             -0.0000  YZZ=              0.0000
  YYZ=              0.0000  XYZ=              0.0000
 Hexadecapole moment (field-independent basis, Debye-Ang**3):
 XXXX=            -16.5006 YYYY=            -16.5006 ZZZZ=          -1739.7320 XXXY=             -0.0000
 XXXZ=              0.0000 YYYX=             -0.0000 YYYZ=             -0.0000 ZZZX=              0.0000
 ZZZY=             -0.0000 XXYY=             -5.5002 XXZZ=           -189.8420 YYZZ=           -189.8420
 XXYZ=             -0.0000 YYXZ=              0.0000 ZZXY=             -0.0000
 N-N= 7.523168476610D+01 E-N=-8.690290684248D+02  KE= 2.991442089057D+02
 Symmetry AG   KE= 1.370438022784D+02
 Symmetry B1G  KE= 1.018013528338D-33
 Symmetry B2G  KE= 7.038339768606D+00
 Symmetry B3G  KE= 7.038339780765D+00
 Symmetry AU   KE= 1.017860834016D-33
 Symmetry B1U  KE= 1.339544689649D+02
 Symmetry B2U  KE= 7.034629062779D+00
 Symmetry B3U  KE= 7.034629050187D+00
 Symmetry AG   SP= 1.000000000000D+00
 Symmetry B1G  SP= 7.280974681303D-35
 Symmetry B2G  SP= 1.000000000000D+00
 Symmetry B3G  SP= 1.000000000000D+00
 Symmetry AU   SP= 7.278462720250D-35
 Symmetry B1U  SP=-7.652358043984D-16
 Symmetry B2U  SP= 1.000000000000D+00
 Symmetry B3U  SP= 1.000000000000D+00
                          Isotropic Fermi Contact Couplings
        Atom                 a.u.       MegaHertz       Gauss      10(-4) cm-1
     1  O(17)              0.52907     -64.14403     -22.88818     -21.39614
     2  O(17)              0.49584     -60.11541     -21.45067     -20.05234
     3  O(17)              0.49584     -60.11541     -21.45067     -20.05234
     4  O(17)              0.52907     -64.14403     -22.88818     -21.39614
 --------------------------------------------------------
       Center         ----  Spin Dipole Couplings  ----
                      3XX-RR        3YY-RR        3ZZ-RR
 --------------------------------------------------------
     1   Atom        0.749596      0.749597     -1.499194
     2   Atom        0.535704      0.535703     -1.071406
     3   Atom        0.535704      0.535703     -1.071406
     4   Atom        0.749596      0.749597     -1.499194
 --------------------------------------------------------
                        XY            XZ            YZ
 --------------------------------------------------------
     1   Atom        0.000000     -0.000000      0.000000
     2   Atom        0.000000     -0.000000      0.000000
     3   Atom        0.000000      0.000000      0.000000
     4   Atom        0.000000      0.000000      0.000000
 --------------------------------------------------------


 ---------------------------------------------------------------------------------
              Anisotropic Spin Dipole Couplings in Principal Axis System
 ---------------------------------------------------------------------------------

       Atom             a.u.   MegaHertz   Gauss  10(-4) cm-1        Axes

              Baa    -1.4992   108.481    38.709    36.185  0.0000  0.0000  1.0000
     1 O(17)  Bbb     0.7496   -54.240   -19.354   -18.093  1.0000 -0.0000 -0.0000
              Bcc     0.7496   -54.240   -19.354   -18.093  0.0000  1.0000  0.0000
 
              Baa    -1.0714    77.526    27.663    25.860  0.0000  0.0000  1.0000
     2 O(17)  Bbb     0.5357   -38.763   -13.832   -12.930  0.0000  1.0000  0.0000
              Bcc     0.5357   -38.763   -13.832   -12.930  1.0000  0.0000  0.0000
 
              Baa    -1.0714    77.526    27.663    25.860  0.0000  0.0000  1.0000
     3 O(17)  Bbb     0.5357   -38.763   -13.832   -12.930 -0.0000  1.0000 -0.0000
              Bcc     0.5357   -38.763   -13.832   -12.930  1.0000 -0.0000 -0.0000
 
              Baa    -1.4992   108.481    38.709    36.185  0.0000  0.0000  1.0000
     4 O(17)  Bbb     0.7496   -54.240   -19.354   -18.093  1.0000  0.0000 -0.0000
              Bcc     0.7496   -54.240   -19.354   -18.093 -0.0000  1.0000  0.0000
 

 ---------------------------------------------------------------------------------

 No NMR shielding tensors so no spin-rotation constants.
 Leave Link  601 at Sun Jan 15 07:14:12 2023, MaxMem=   671088640 cpu:               1.9 elap:               0.4
 (Enter /usr/site/hpc/x86_64/glibc-2.17/broadwell/gaussian/g16_a.03/pgi-16.5/g16/l9999.exe)
 1\1\GINC-N050\SP\ROCCSD(T)-FC\CC-pVTZ\O4(1-,6)\C7441284\15-Jan-2023\0\
 \#p ROCCSD(T)/cc-pVTZ Guess=Read SCF=(VeryTight,CDIIS,VShift=10)\\O2_O
 2_185\\-1,6\O,0,0.67619,0.,0.\O,0,-0.67619,0.,0.\O,0,6.233059,0.,0.\O,
 0,4.880679,0.,0.\\Version=ES64L-G16RevA.03\State=6-SGG\HF=-298.9895896
 \MP2=-300.0660038\MP3=-299.9625296\PUHF=-298.9895896\PMP2-0=-300.06600
 38\MP4SDQ=-299.9979688\CCSD=-299.9851094\CCSD(T)=-300.0372665\RMSD=2.8
 15e-09\PG=D*H [C*(O1O1.O1O1)]\\@


 "THE ACADEMIC HIERARCHY"


 THE PRESIDENT:
   LEAPS TALL BUILDINGS IN A SINGLE BOUND,
     IS MORE POWERFUL THAN A LOCOMOTIVE,
       IS FASTER THAN A SPEEDING BULLET,
         WALKS ON WATER,
           GIVES POLICY TO GOD.

 THE VICE PRESIDENT FOR ACADEMIC AFFAIRS:
   LEAPS SHORT BUILDINGS IN A SINGLE BOUND,
     IS MORE POWERFUL THAN A SWITCH ENGINE,
       IS JUST AS FAST AS A SPEEDING BULLET,
         WALKS ON WATER IF SEA IS CALM,
           TALKS WITH GOD.

 PROFESSOR:
   LEAPS SHORT BUILDINGS WITH A RUNNING START AND FAVORABLE WINDS,
     IS ALMOST AS POWERFUL AS A SWITCH ENGINE,
       CAN FIRE A SPEEDING BULLET,
         WALKS ON WATER IN AN INDOOR SWIMMING POOL,
          TALKS WITH GOD IF SPECIAL REQUEST IS APPROVED.

 ASSOCIATE PROFESSOR:
   BARELY CLEARS A QUONSET HUT,
     LOSES TUG OF WAR WITH LOCOMOTIVE,
       MISFIRES FREQUENTLY,
         SWIMS WELL,
           IS OCCASIONALLY ADDRESSED BY GOD.

 ASSISTANT PROFESSOR:
   MAKES HIGH MARKS ON WALLS WHEN TRYING TO LEAP TALL BUILDINGS,
     IS RUN OVER BY LOCOMOTIVES,
       CAN SOMETIMES HANDLE A GUN WITHOUT INFLICTING SELF INJURY,
         DOG PADDLES,
           TALKS TO ANIMALS.

 GRADUATE STUDENT:
   RUNS INTO BUILDINGS,
     RECOGNIZES LOCOMOTIVES TWO OUT OF THREE TIMES,
       IS NOT ISSUED AMMUNITION,
         CAN STAY AFLOAT WITH A LIFE JACKET,
           TALKS TO WALLS.

 UNDERGRADUATE AND WORK STUDY STUDENT:
   FALLS OVER DOORSTEP WHEN TRYING TO ENTER BUILDINGS,
     SAYS, "LOOK AT THE CHOO-CHOO,"
       WETS HIMSELF WITH A WATER PISTOL,
        PLAYS IN MUD PUDDLES,
          MUMBLES TO HIMSELF.

 DEPARTMENT SECRETARY:
   LIFTS TALL BUILDINGS AND WALKS UNDER THEM,
     KICKS LOCOMOTIVES OFF THE TRACKS,
       CATCHES SPEEDING BULLETS IN HER TEETH AND EATS THEM,
         FREEZES WATER WITH A SINGLE GLANCE,
           IS GOD.
 Job cpu time:       0 days  0 hours 14 minutes 38.2 seconds.
 Elapsed time:       0 days  0 hours  2 minutes 29.0 seconds.
 File lengths (MBytes):  RWF=    532 Int=      0 D2E=      0 Chk=      8 Scr=      8
 Normal termination of Gaussian 16 at Sun Jan 15 07:14:12 2023.
