 Entering Gaussian System, Link 0=g16
 Input=O2_O2_195.com
 Output=O2_O2_195.log
 Initial command:
 /usr/site/hpc/x86_64/glibc-2.17/haswell/gaussian/g16_a.03/pgi-16.5/g16/l1.exe "/gpfs/gpfs1/scratch/c7441284/ForceFieldSims/O2/Gau-1983101.inp" -scrdir="/gpfs/gpfs1/scratch/c7441284/ForceFieldSims/O2/"
 Entering Link 1 = /usr/site/hpc/x86_64/glibc-2.17/haswell/gaussian/g16_a.03/pgi-16.5/g16/l1.exe PID=   1983102.
  
 Copyright (c) 1988,1990,1992,1993,1995,1998,2003,2009,2016,
            Gaussian, Inc.  All Rights Reserved.
  
 This is part of the Gaussian(R) 16 program.  It is based on
 the Gaussian(R) 09 system (copyright 2009, Gaussian, Inc.),
 the Gaussian(R) 03 system (copyright 2003, Gaussian, Inc.),
 the Gaussian(R) 98 system (copyright 1998, Gaussian, Inc.),
 the Gaussian(R) 94 system (copyright 1995, Gaussian, Inc.),
 the Gaussian 92(TM) system (copyright 1992, Gaussian, Inc.),
 the Gaussian 90(TM) system (copyright 1990, Gaussian, Inc.),
 the Gaussian 88(TM) system (copyright 1988, Gaussian, Inc.),
 the Gaussian 86(TM) system (copyright 1986, Carnegie Mellon
 University), and the Gaussian 82(TM) system (copyright 1983,
 Carnegie Mellon University). Gaussian is a federally registered
 trademark of Gaussian, Inc.
  
 This software contains proprietary and confidential information,
 including trade secrets, belonging to Gaussian, Inc.
  
 This software is provided under written license and may be
 used, copied, transmitted, or stored only in accord with that
 written license.
  
 The following legend is applicable only to US Government
 contracts under FAR:
  
                    RESTRICTED RIGHTS LEGEND
  
 Use, reproduction and disclosure by the US Government is
 subject to restrictions as set forth in subparagraphs (a)
 and (c) of the Commercial Computer Software - Restricted
 Rights clause in FAR 52.227-19.
  
 Gaussian, Inc.
 340 Quinnipiac St., Bldg. 40, Wallingford CT 06492
  
  
 ---------------------------------------------------------------
 Warning -- This program may not be used in any manner that
 competes with the business of Gaussian, Inc. or will provide
 assistance to any competitor of Gaussian, Inc.  The licensee
 of this program is prohibited from giving any competitor of
 Gaussian, Inc. access to this program.  By using this program,
 the user acknowledges that Gaussian, Inc. is engaged in the
 business of creating and licensing software in the field of
 computational chemistry and represents and warrants to the
 licensee that it is not a competitor of Gaussian, Inc. and that
 it will not use this program in any manner prohibited above.
 ---------------------------------------------------------------
  

 Cite this work as:
 Gaussian 16, Revision A.03,
 M. J. Frisch, G. W. Trucks, H. B. Schlegel, G. E. Scuseria, 
 M. A. Robb, J. R. Cheeseman, G. Scalmani, V. Barone, 
 G. A. Petersson, H. Nakatsuji, X. Li, M. Caricato, A. V. Marenich, 
 J. Bloino, B. G. Janesko, R. Gomperts, B. Mennucci, H. P. Hratchian, 
 J. V. Ortiz, A. F. Izmaylov, J. L. Sonnenberg, D. Williams-Young, 
 F. Ding, F. Lipparini, F. Egidi, J. Goings, B. Peng, A. Petrone, 
 T. Henderson, D. Ranasinghe, V. G. Zakrzewski, J. Gao, N. Rega, 
 G. Zheng, W. Liang, M. Hada, M. Ehara, K. Toyota, R. Fukuda, 
 J. Hasegawa, M. Ishida, T. Nakajima, Y. Honda, O. Kitao, H. Nakai, 
 T. Vreven, K. Throssell, J. A. Montgomery, Jr., J. E. Peralta, 
 F. Ogliaro, M. J. Bearpark, J. J. Heyd, E. N. Brothers, K. N. Kudin, 
 V. N. Staroverov, T. A. Keith, R. Kobayashi, J. Normand, 
 K. Raghavachari, A. P. Rendell, J. C. Burant, S. S. Iyengar, 
 J. Tomasi, M. Cossi, J. M. Millam, M. Klene, C. Adamo, R. Cammi, 
 J. W. Ochterski, R. L. Martin, K. Morokuma, O. Farkas, 
 J. B. Foresman, and D. J. Fox, Gaussian, Inc., Wallingford CT, 2016.
 
 ******************************************
 Gaussian 16:  ES64L-G16RevA.03 25-Dec-2016
                 7-Jan-2023 
 ******************************************
 %NProcShared=4
 Will use up to    4 processors via shared memory.
 %Mem=4GB
 %OldChk=O2_O2_194.chk
 %Chk=O2_O2_195.chk
 Copying data from "O2_O2_194.chk" to current chk file "O2_O2_195.chk"
 IOpt=  2 FromEx=T IUOpen= 4 IOptOp= 5 NList=   0 IFRang= 0 IUIn= 4 IUOut= 2.
 ------------------------------------------------
 #p CCSD(T,MaxCyc=300)/cc-pVTZ Guess=Read SCF=XQC
 ------------------------------------------------
 1/38=1,172=1/1;
 2/12=2,17=6,18=5,40=1/2;
 3/5=16,6=1,11=9,25=1,30=1,116=-2/1,2,3;
 4/5=1/1;
 5/5=2,8=3,13=1,38=6/2,8;
 8/6=4,9=120000,10=1/1,4;
 9/5=7,6=300,14=2/13;
 6/7=2,8=2,9=2,10=2/1;
 99/5=1,9=1/99;
 Leave Link    1 at Sat Jan  7 07:31:13 2023, MaxMem=   536870912 cpu:               0.4 elap:               0.1
 (Enter /usr/site/hpc/x86_64/glibc-2.17/haswell/gaussian/g16_a.03/pgi-16.5/g16/l101.exe)
 ---------
 O2_O2_195
 ---------
 Symbolic Z-matrix:
 Charge = -2 Multiplicity = 5
 O                     0.67619   0.        0. 
 O                    -0.67619   0.        0. 
 O                     6.37464   0.        0. 
 O                     5.02226   0.        0. 
 
 ITRead=  0  0  0  0
 MicOpt= -1 -1 -1 -1
 NAtoms=      4 NQM=        4 NQMF=       0 NMMI=      0 NMMIF=      0
                NMic=       0 NMicF=      0.
                    Isotopes and Nuclear Properties:
 (Nuclear quadrupole moments (NQMom) in fm**2, nuclear magnetic moments (NMagM)
  in nuclear magnetons)

  Atom         1           2           3           4
 IAtWgt=          16          16          16          16
 AtmWgt=  15.9949146  15.9949146  15.9949146  15.9949146
 NucSpn=           0           0           0           0
 AtZEff=  -0.0000000  -0.0000000  -0.0000000  -0.0000000
 NQMom=    0.0000000   0.0000000   0.0000000   0.0000000
 NMagM=    0.0000000   0.0000000   0.0000000   0.0000000
 AtZNuc=   8.0000000   8.0000000   8.0000000   8.0000000
 Leave Link  101 at Sat Jan  7 07:31:13 2023, MaxMem=   536870912 cpu:               0.8 elap:               0.2
 (Enter /usr/site/hpc/x86_64/glibc-2.17/haswell/gaussian/g16_a.03/pgi-16.5/g16/l202.exe)
                          Input orientation:                          
 ---------------------------------------------------------------------
 Center     Atomic      Atomic             Coordinates (Angstroms)
 Number     Number       Type             X           Y           Z
 ---------------------------------------------------------------------
      1          8           0        0.676190    0.000000    0.000000
      2          8           0       -0.676190    0.000000    0.000000
      3          8           0        6.374644    0.000000    0.000000
      4          8           0        5.022264    0.000000    0.000000
 ---------------------------------------------------------------------
                    Distance matrix (angstroms):
                    1          2          3          4
     1  O    0.000000
     2  O    1.352380   0.000000
     3  O    5.698454   7.050834   0.000000
     4  O    4.346074   5.698454   1.352380   0.000000
 Stoichiometry    O4(2-,5)
 Framework group  D*H[C*(OO.OO)]
 Deg. of freedom     2
 Full point group                 D*H     NOp   8
 Largest Abelian subgroup         D2H     NOp   8
 Largest concise Abelian subgroup C2      NOp   2
                         Standard orientation:                         
 ---------------------------------------------------------------------
 Center     Atomic      Atomic             Coordinates (Angstroms)
 Number     Number       Type             X           Y           Z
 ---------------------------------------------------------------------
      1          8           0        0.000000    0.000000    2.173037
      2          8           0        0.000000    0.000000    3.525417
      3          8           0        0.000000    0.000000   -3.525417
      4          8           0        0.000000    0.000000   -2.173037
 ---------------------------------------------------------------------
 Rotational constants (GHZ):           0.0000000           0.9211377           0.9211377
 Leave Link  202 at Sat Jan  7 07:31:13 2023, MaxMem=   536870912 cpu:               0.0 elap:               0.0
 (Enter /usr/site/hpc/x86_64/glibc-2.17/haswell/gaussian/g16_a.03/pgi-16.5/g16/l301.exe)
 Standard basis: CC-pVTZ (5D, 7F)
 Ernie: Thresh=  0.10000D-02 Tol=  0.10000D-05 Strict=F.
 Ernie:  12 primitive shells out of 104 were deleted.
 There are    32 symmetry adapted cartesian basis functions of AG  symmetry.
 There are     6 symmetry adapted cartesian basis functions of B1G symmetry.
 There are    16 symmetry adapted cartesian basis functions of B2G symmetry.
 There are    16 symmetry adapted cartesian basis functions of B3G symmetry.
 There are     6 symmetry adapted cartesian basis functions of AU  symmetry.
 There are    32 symmetry adapted cartesian basis functions of B1U symmetry.
 There are    16 symmetry adapted cartesian basis functions of B2U symmetry.
 There are    16 symmetry adapted cartesian basis functions of B3U symmetry.
 There are    26 symmetry adapted basis functions of AG  symmetry.
 There are     6 symmetry adapted basis functions of B1G symmetry.
 There are    14 symmetry adapted basis functions of B2G symmetry.
 There are    14 symmetry adapted basis functions of B3G symmetry.
 There are     6 symmetry adapted basis functions of AU  symmetry.
 There are    26 symmetry adapted basis functions of B1U symmetry.
 There are    14 symmetry adapted basis functions of B2U symmetry.
 There are    14 symmetry adapted basis functions of B3U symmetry.
   120 basis functions,   208 primitive gaussians,   140 cartesian basis functions
    19 alpha electrons       15 beta electrons
       nuclear repulsion energy        74.5679808006 Hartrees.
 IExCor=    0 DFT=F Ex=HF Corr=None ExCW=0 ScaHFX=  1.000000
 ScaDFX=  1.000000  1.000000  1.000000  1.000000 ScalE2=  1.000000  1.000000
 IRadAn=      5 IRanWt=     -1 IRanGd=            0 ICorTp=0 IEmpDi=  4
 NAtoms=    4 NActive=    4 NUniq=    2 SFac= 4.00D+00 NAtFMM=   60 NAOKFM=F Big=F
 Integral buffers will be    131072 words long.
 Raffenetti 2 integral format.
 Two-electron integral symmetry is turned on.
 Leave Link  301 at Sat Jan  7 07:31:13 2023, MaxMem=   536870912 cpu:               0.2 elap:               0.0
 (Enter /usr/site/hpc/x86_64/glibc-2.17/haswell/gaussian/g16_a.03/pgi-16.5/g16/l302.exe)
 NPDir=0 NMtPBC=     1 NCelOv=     1 NCel=       1 NClECP=     1 NCelD=      1
         NCelK=      1 NCelE2=     1 NClLst=     1 CellRange=     0.0.
 One-electron integrals computed using PRISM.
 One-electron integral symmetry used in STVInt
 NBasis=   120 RedAO= T EigKep=  7.44D-03  NBF=    26     6    14    14     6    26    14    14
 NBsUse=   120 1.00D-06 EigRej= -1.00D+00 NBFU=    26     6    14    14     6    26    14    14
 Leave Link  302 at Sat Jan  7 07:31:14 2023, MaxMem=   536870912 cpu:               0.7 elap:               0.2
 (Enter /usr/site/hpc/x86_64/glibc-2.17/haswell/gaussian/g16_a.03/pgi-16.5/g16/l303.exe)
 DipDrv:  MaxL=1.
 Leave Link  303 at Sat Jan  7 07:31:14 2023, MaxMem=   536870912 cpu:               0.2 elap:               0.0
 (Enter /usr/site/hpc/x86_64/glibc-2.17/haswell/gaussian/g16_a.03/pgi-16.5/g16/l401.exe)
 Initial guess from the checkpoint file:  "O2_O2_195.chk"
 B after Tr=     0.000000    0.000000    0.000000
         Rot=    1.000000    0.000000    0.000000    0.000000 Ang=   0.00 deg.
 Guess basis will be translated and rotated to current coordinates.
 JPrj=2 DoOrth=T DoCkMO=T.
 Initial guess orbital symmetries:
 Alpha Orbitals:
       Occupied  (SGG) (SGU) (SGG) (SGU) (SGG) (SGU) (SGG) (SGU)
                 (?A) (?B) (?A) (?B) (SGG) (SGU) (?A) (?B) (?A)
                 (?B) (SGG)
       Virtual   (SGU) (SGG) (SGU) (?A) (?B) (?A) (?B) (SGG) (SGU)
                 (?A) (?B) (?A) (?B) (SGU) (SGG) (SGG) (SGU) (PIU)
                 (PIG) (PIU) (PIG) (DLTG) (DLTU) (DLTG) (DLTU)
                 (DLTG) (DLTU) (DLTG) (DLTU) (SGG) (SGU) (PIU)
                 (PIG) (PIU) (PIG) (SGG) (SGU) (PIU) (PIG) (PIU)
                 (PIG) (SGG) (SGU) (PIU) (PIG) (PIU) (PIG) (?C)
                 (?D) (PIU) (PIG) (PIU) (PIG) (?C) (?D) (?C) (?D)
                 (?C) (?D) (PHIU) (PHIG) (PHIU) (PHIG) (PHIU) (PHIG)
                 (PHIU) (PHIG) (DLTG) (DLTU) (DLTG) (DLTU) (PIU)
                 (PIG) (PIU) (PIG) (DLTG) (DLTU) (DLTG) (DLTU)
                 (?E) (?F) (?E) (?F) (PIU) (PIG) (PIU) (PIG) (?E)
                 (?F) (SGG) (SGU) (SGG) (SGU) (PIU) (PIG) (PIU)
                 (PIG) (SGG) (SGU) (SGG) (SGU)
 Beta  Orbitals:
       Occupied  (SGG) (SGU) (SGG) (SGU) (SGG) (SGU) (SGG) (SGU)
                 (SGG) (SGU) (?A) (?B) (?A) (?B) (?A)
       Virtual   (?B) (?A) (?B) (SGG) (SGU) (SGG) (SGU) (SGG) (?A)
                 (?B) (?A) (?B) (SGU) (?A) (?B) (?A) (?B) (SGU)
                 (SGG) (SGG) (SGU) (PIU) (PIG) (PIU) (PIG) (DLTG)
                 (DLTG) (DLTU) (DLTU) (DLTG) (DLTG) (DLTU) (DLTU)
                 (SGG) (SGU) (PIU) (PIG) (PIU) (PIG) (SGG) (SGU)
                 (PIU) (PIG) (PIU) (PIG) (SGG) (SGU) (PIU) (PIG)
                 (PIU) (PIG) (SGG) (SGU) (PIU) (PIG) (PIU) (PIG)
                 (?C) (?D) (?C) (?D) (?C) (?D) (PHIU) (PHIU) (PHIG)
                 (PHIG) (PHIU) (PHIU) (PHIG) (PHIG) (DLTG) (DLTG)
                 (DLTU) (DLTU) (PIU) (PIG) (PIU) (PIG) (DLTG) (DLTU)
                 (DLTG) (DLTU) (?E) (?F) (?E) (?F) (PIU) (PIG)
                 (PIG) (PIU) (?E) (?F) (SGG) (SGU) (SGG) (SGU)
                 (PIU) (PIG) (PIU) (PIG) (SGG) (SGU) (SGG) (SGU)
 Initial guess <Sx>= 0.0000 <Sy>= 0.0000 <Sz>= 2.0000 <S**2>= 6.1019 S= 2.0203
 Leave Link  401 at Sat Jan  7 07:31:14 2023, MaxMem=   536870912 cpu:               0.4 elap:               0.1
 (Enter /usr/site/hpc/x86_64/glibc-2.17/haswell/gaussian/g16_a.03/pgi-16.5/g16/l502.exe)
 Keep R1 and R2 ints in memory in symmetry-blocked form, NReq=29773135.
 FoFCou: FMM=F IPFlag=           0 FMFlag=           0 FMFlg1=           0
         NFxFlg=           0 DoJE=F BraDBF=F KetDBF=F FulRan=T
         wScrn=  0.000000 ICntrl=       600 IOpCl=  0 I1Cent=           0 NGrid=           0
         NMat0=    1 NMatS0=   7260 NMatT0=    0 NMatD0=    1 NMtDS0=    0 NMtDT0=    0
 Petite list used in FoFCou.
 UHF open shell SCF:
 Using DIIS extrapolation, IDIIS=  1040.
 NGot=   536870912 LenX=   530022884 LenY=   530002843
 Requested convergence on RMS density matrix=1.00D-08 within  32 cycles.
 Requested convergence on MAX density matrix=1.00D-06.
 Requested convergence on             energy=1.00D-06.
 No special actions if energy rises.

 Cycle   1  Pass 1  IDiag  1:
 E= -298.770204709074    
 DIIS: error= 9.56D-05 at cycle   1 NSaved=   1.
 NSaved= 1 IEnMin= 1 EnMin= -298.770204709074     IErMin= 1 ErrMin= 9.56D-05
 ErrMax= 9.56D-05  0.00D+00 EMaxC= 1.00D-01 BMatC= 5.55D-07 BMatP= 5.55D-07
 IDIUse=1 WtCom= 1.00D+00 WtEn= 0.00D+00
 Coeff-Com:  0.100D+01
 Coeff:      0.100D+01
 Gap=     0.116 Goal=   None    Shift=    0.000
 Gap=     0.095 Goal=   None    Shift=    0.000
 RMSDP=5.58D-05 MaxDP=1.49D-03              OVMax= 5.43D-04

 Cycle   2  Pass 1  IDiag  1:
 E= -298.770205102485     Delta-E=       -0.000000393410 Rises=F Damp=F
 DIIS: error= 2.88D-05 at cycle   2 NSaved=   2.
 NSaved= 2 IEnMin= 2 EnMin= -298.770205102485     IErMin= 2 ErrMin= 2.88D-05
 ErrMax= 2.88D-05  0.00D+00 EMaxC= 1.00D-01 BMatC= 2.30D-07 BMatP= 5.55D-07
 IDIUse=1 WtCom= 1.00D+00 WtEn= 0.00D+00
 Coeff-Com:  0.195D+00 0.805D+00
 Coeff:      0.195D+00 0.805D+00
 Gap=     0.116 Goal=   None    Shift=    0.000
 Gap=     0.095 Goal=   None    Shift=    0.000
 RMSDP=1.39D-05 MaxDP=3.98D-04 DE=-3.93D-07 OVMax= 1.85D-04

 Cycle   3  Pass 1  IDiag  1:
 E= -298.770205176564     Delta-E=       -0.000000074079 Rises=F Damp=F
 DIIS: error= 2.62D-05 at cycle   3 NSaved=   3.
 NSaved= 3 IEnMin= 3 EnMin= -298.770205176564     IErMin= 3 ErrMin= 2.62D-05
 ErrMax= 2.62D-05  0.00D+00 EMaxC= 1.00D-01 BMatC= 6.92D-08 BMatP= 2.30D-07
 IDIUse=1 WtCom= 1.00D+00 WtEn= 0.00D+00
 Coeff-Com: -0.183D+00 0.296D+00 0.887D+00
 Coeff:     -0.183D+00 0.296D+00 0.887D+00
 Gap=     0.116 Goal=   None    Shift=    0.000
 Gap=     0.095 Goal=   None    Shift=    0.000
 RMSDP=1.22D-05 MaxDP=3.70D-04 DE=-7.41D-08 OVMax= 1.63D-04

 Cycle   4  Pass 1  IDiag  1:
 E= -298.770205216476     Delta-E=       -0.000000039912 Rises=F Damp=F
 DIIS: error= 9.35D-06 at cycle   4 NSaved=   4.
 NSaved= 4 IEnMin= 4 EnMin= -298.770205216476     IErMin= 4 ErrMin= 9.35D-06
 ErrMax= 9.35D-06  0.00D+00 EMaxC= 1.00D-01 BMatC= 1.49D-08 BMatP= 6.92D-08
 IDIUse=1 WtCom= 1.00D+00 WtEn= 0.00D+00
 Coeff-Com:  0.475D-01-0.284D+00-0.113D+00 0.135D+01
 Coeff:      0.475D-01-0.284D+00-0.113D+00 0.135D+01
 Gap=     0.116 Goal=   None    Shift=    0.000
 Gap=     0.095 Goal=   None    Shift=    0.000
 RMSDP=6.20D-06 MaxDP=1.88D-04 DE=-3.99D-08 OVMax= 9.01D-05

 Cycle   5  Pass 1  IDiag  1:
 E= -298.770205226321     Delta-E=       -0.000000009845 Rises=F Damp=F
 DIIS: error= 6.14D-06 at cycle   5 NSaved=   5.
 NSaved= 5 IEnMin= 5 EnMin= -298.770205226321     IErMin= 5 ErrMin= 6.14D-06
 ErrMax= 6.14D-06  0.00D+00 EMaxC= 1.00D-01 BMatC= 2.94D-09 BMatP= 1.49D-08
 IDIUse=1 WtCom= 1.00D+00 WtEn= 0.00D+00
 Coeff-Com:  0.399D-01-0.116D+00-0.116D+00 0.156D+00 0.104D+01
 Coeff:      0.399D-01-0.116D+00-0.116D+00 0.156D+00 0.104D+01
 Gap=     0.116 Goal=   None    Shift=    0.000
 Gap=     0.095 Goal=   None    Shift=    0.000
 RMSDP=1.05D-06 MaxDP=3.78D-05 DE=-9.84D-09 OVMax= 1.97D-05

 Cycle   6  Pass 1  IDiag  1:
 E= -298.770205228311     Delta-E=       -0.000000001990 Rises=F Damp=F
 DIIS: error= 4.24D-06 at cycle   6 NSaved=   6.
 NSaved= 6 IEnMin= 6 EnMin= -298.770205228311     IErMin= 6 ErrMin= 4.24D-06
 ErrMax= 4.24D-06  0.00D+00 EMaxC= 1.00D-01 BMatC= 9.48D-10 BMatP= 2.94D-09
 IDIUse=1 WtCom= 1.00D+00 WtEn= 0.00D+00
 Coeff-Com: -0.212D-01 0.113D+00 0.114D+00-0.481D+00-0.365D+00 0.164D+01
 Coeff:     -0.212D-01 0.113D+00 0.114D+00-0.481D+00-0.365D+00 0.164D+01
 Gap=     0.116 Goal=   None    Shift=    0.000
 Gap=     0.095 Goal=   None    Shift=    0.000
 RMSDP=3.53D-07 MaxDP=9.44D-06 DE=-1.99D-09 OVMax= 2.10D-05

 Cycle   7  Pass 1  IDiag  1:
 E= -298.770205229347     Delta-E=       -0.000000001036 Rises=F Damp=F
 DIIS: error= 1.81D-06 at cycle   7 NSaved=   7.
 NSaved= 7 IEnMin= 7 EnMin= -298.770205229347     IErMin= 7 ErrMin= 1.81D-06
 ErrMax= 1.81D-06  0.00D+00 EMaxC= 1.00D-01 BMatC= 1.92D-10 BMatP= 9.48D-10
 IDIUse=1 WtCom= 1.00D+00 WtEn= 0.00D+00
 Coeff-Com: -0.126D-02-0.170D-01-0.120D-01 0.110D+00-0.104D+00-0.671D+00
 Coeff-Com:  0.169D+01
 Coeff:     -0.126D-02-0.170D-01-0.120D-01 0.110D+00-0.104D+00-0.671D+00
 Coeff:      0.169D+01
 Gap=     0.116 Goal=   None    Shift=    0.000
 Gap=     0.095 Goal=   None    Shift=    0.000
 RMSDP=2.35D-07 MaxDP=7.29D-06 DE=-1.04D-09 OVMax= 1.62D-05

 Cycle   8  Pass 1  IDiag  1:
 E= -298.770205229653     Delta-E=       -0.000000000306 Rises=F Damp=F
 DIIS: error= 5.32D-07 at cycle   8 NSaved=   8.
 NSaved= 8 IEnMin= 8 EnMin= -298.770205229653     IErMin= 8 ErrMin= 5.32D-07
 ErrMax= 5.32D-07  0.00D+00 EMaxC= 1.00D-01 BMatC= 2.53D-11 BMatP= 1.92D-10
 IDIUse=1 WtCom= 1.00D+00 WtEn= 0.00D+00
 Coeff-Com:  0.356D-02-0.126D-01-0.147D-02 0.162D-01 0.956D-01-0.719D-02
 Coeff-Com: -0.610D+00 0.152D+01
 Coeff:      0.356D-02-0.126D-01-0.147D-02 0.162D-01 0.956D-01-0.719D-02
 Coeff:     -0.610D+00 0.152D+01
 Gap=     0.116 Goal=   None    Shift=    0.000
 Gap=     0.095 Goal=   None    Shift=    0.000
 RMSDP=8.19D-08 MaxDP=2.38D-06 DE=-3.06D-10 OVMax= 6.08D-06

 Cycle   9  Pass 1  IDiag  1:
 E= -298.770205229682     Delta-E=       -0.000000000028 Rises=F Damp=F
 DIIS: error= 1.97D-07 at cycle   9 NSaved=   9.
 NSaved= 9 IEnMin= 9 EnMin= -298.770205229682     IErMin= 9 ErrMin= 1.97D-07
 ErrMax= 1.97D-07  0.00D+00 EMaxC= 1.00D-01 BMatC= 2.88D-12 BMatP= 2.53D-11
 IDIUse=1 WtCom= 1.00D+00 WtEn= 0.00D+00
 Coeff-Com: -0.821D-03 0.340D-02 0.334D-02-0.107D-01-0.312D-01 0.493D-01
 Coeff-Com:  0.117D+00-0.603D+00 0.147D+01
 Coeff:     -0.821D-03 0.340D-02 0.334D-02-0.107D-01-0.312D-01 0.493D-01
 Coeff:      0.117D+00-0.603D+00 0.147D+01
 Gap=     0.116 Goal=   None    Shift=    0.000
 Gap=     0.095 Goal=   None    Shift=    0.000
 RMSDP=1.61D-08 MaxDP=4.25D-07 DE=-2.85D-11 OVMax= 2.01D-06

 Cycle  10  Pass 1  IDiag  1:
 E= -298.770205229685     Delta-E=       -0.000000000003 Rises=F Damp=F
 DIIS: error= 1.40D-07 at cycle  10 NSaved=  10.
 NSaved=10 IEnMin=10 EnMin= -298.770205229685     IErMin=10 ErrMin= 1.40D-07
 ErrMax= 1.40D-07  0.00D+00 EMaxC= 1.00D-01 BMatC= 8.19D-13 BMatP= 2.88D-12
 IDIUse=1 WtCom= 1.00D+00 WtEn= 0.00D+00
 Coeff-Com:  0.306D-03-0.225D-02-0.146D-02 0.821D-02 0.905D-02-0.486D-01
 Coeff-Com:  0.311D-01 0.167D+00-0.891D+00 0.173D+01
 Coeff:      0.306D-03-0.225D-02-0.146D-02 0.821D-02 0.905D-02-0.486D-01
 Coeff:      0.311D-01 0.167D+00-0.891D+00 0.173D+01
 Gap=     0.116 Goal=   None    Shift=    0.000
 Gap=     0.095 Goal=   None    Shift=    0.000
 RMSDP=1.10D-08 MaxDP=3.40D-07 DE=-3.41D-12 OVMax= 1.50D-06

 Cycle  11  Pass 1  IDiag  1:
 E= -298.770205229686     Delta-E=       -0.000000000001 Rises=F Damp=F
 DIIS: error= 9.02D-08 at cycle  11 NSaved=  11.
 NSaved=11 IEnMin=11 EnMin= -298.770205229686     IErMin=11 ErrMin= 9.02D-08
 ErrMax= 9.02D-08  0.00D+00 EMaxC= 1.00D-01 BMatC= 3.63D-13 BMatP= 8.19D-13
 IDIUse=1 WtCom= 1.00D+00 WtEn= 0.00D+00
 Coeff-Com:  0.278D-03-0.910D-03 0.729D-03-0.107D-02 0.771D-02 0.117D-01
 Coeff-Com: -0.741D-01 0.130D+00 0.160D+00-0.141D+01 0.218D+01
 Coeff:      0.278D-03-0.910D-03 0.729D-03-0.107D-02 0.771D-02 0.117D-01
 Coeff:     -0.741D-01 0.130D+00 0.160D+00-0.141D+01 0.218D+01
 Gap=     0.116 Goal=   None    Shift=    0.000
 Gap=     0.095 Goal=   None    Shift=    0.000
 RMSDP=9.89D-09 MaxDP=3.02D-07 DE=-1.14D-12 OVMax= 1.55D-06

 SCF Done:  E(UHF) =  -298.770205230     A.U. after   11 cycles
            NFock= 11  Conv=0.99D-08     -V/T= 1.9968
 <Sx>= 0.0000 <Sy>= 0.0000 <Sz>= 2.0000 <S**2>= 6.1019 S= 2.0203
 <L.S>= 0.000000000000E+00
 KE= 2.997291431430D+02 PE=-8.761593458342D+02 EE= 2.030920166608D+02
 Annihilation of the first spin contaminant:
 S**2 before annihilation     6.1019,   after     6.0040
 Leave Link  502 at Sat Jan  7 07:31:15 2023, MaxMem=   536870912 cpu:               4.4 elap:               1.1
 (Enter /usr/site/hpc/x86_64/glibc-2.17/haswell/gaussian/g16_a.03/pgi-16.5/g16/l508.exe)
 QCSCF skips out because SCF is already converged.
 Leave Link  508 at Sat Jan  7 07:31:15 2023, MaxMem=   536870912 cpu:               0.0 elap:               0.0
 (Enter /usr/site/hpc/x86_64/glibc-2.17/haswell/gaussian/g16_a.03/pgi-16.5/g16/l801.exe)
 Windowed orbitals will be sorted by symmetry type.
 ExpMin= 2.14D-01 ExpMax= 1.53D+04 ExpMxC= 5.22D+02 IAcc=3 IRadAn=         5 AccDes= 0.00D+00
 HarFok:  IExCor=  205 AccDes= 0.00D+00 IRadAn=         5 IDoV=-2 UseB2=F ITyADJ=14
 ICtDFT= 12500011 ScaDFX=  1.000000  1.000000  1.000000  1.000000
 Largest valence mixing into a core orbital is  1.14D-04
 Largest core mixing into a valence orbital is  2.20D-05
 Largest valence mixing into a core orbital is  1.69D-04
 Largest core mixing into a valence orbital is  4.26D-05
 Range of M.O.s used for correlation:     5   120
 NBasis=   120 NAE=    19 NBE=    15 NFC=     4 NFV=     0
 NROrb=    116 NOA=    15 NOB=    11 NVA=   101 NVB=   105

 **** Warning!!: The smallest beta delta epsilon is  0.95032710D-01

 Leave Link  801 at Sat Jan  7 07:31:15 2023, MaxMem=   536870912 cpu:               0.4 elap:               0.1
 (Enter /usr/site/hpc/x86_64/glibc-2.17/haswell/gaussian/g16_a.03/pgi-16.5/g16/l804.exe)
 Open-shell transformation, MDV=   536870912 ITran=4 ISComp=2.
 Unit  1 TFree=       1803098 TCopy=        482679.
 Semi-Direct transformation.
 ModeAB=           4 MOrb=            15 LenV=     536311333
 LASXX=      1361989 LTotXX=     1361989 LenRXX=     2790583
 LTotAB=     1428594 MaxLAS=     5865540 LenRXY=           0
 NonZer=     4152572 LenScr=     6291416 LnRSAI=     5865540
 LnScr1=     9437124 LExtra=           0 Total=     24384663
 MaxDsk=          -1 SrtSym=           T ITran=            4
 DoSDTr:  NPSUse=  4
 JobTyp=1 Pass  1:  I=   1 to  15.
 (rs|ai) integrals will be sorted in core.
 Complete sort for first half transformation.
 First half transformation complete.
 Begin second half transformation for I=  10.
 Complete sort for second half transformation.
 Second half transformation complete.
 ModeAB=           4 MOrb=            11 LenV=     536311333
 LASXX=      1028590 LTotXX=     1028590 LenRXX=     1838863
 LTotAB=      810273 MaxLAS=     4301396 LenRXY=           0
 NonZer=     2867453 LenScr=     4718562 LnRSAI=     4301396
 LnScr1=     7077843 LExtra=           0 Total=     17936664
 MaxDsk=          -1 SrtSym=           T ITran=            4
 DoSDTr:  NPSUse=  4
 JobTyp=2 Pass  1:  I=   1 to  11.
 (rs|ai) integrals will be sorted in core.
 Complete sort for first half transformation.
 First half transformation complete.
 Begin second half transformation for I=  10.
 Complete sort for second half transformation.
 Second half transformation complete.
 Spin components of T(2) and E(2):
     alpha-alpha T2 =       0.4099850286D-01 E2=     -0.1539446074D+00
     alpha-beta  T2 =       0.9978701488D+00 E2=     -0.8831099492D+00
     beta-beta   T2 =       0.6797803313D-01 E2=     -0.1512226089D+00
 ANorm=    0.1451498083D+01
 E2 =    -0.1188277165D+01 EUMP2 =    -0.29995848239509D+03
 (S**2,0)=  0.61019D+01           (S**2,1)=  0.60240D+01
 E(PUHF)=      -0.29878428864D+03        E(PMP2)=      -0.29996733382D+03
 Leave Link  804 at Sat Jan  7 07:31:17 2023, MaxMem=   536870912 cpu:               8.9 elap:               2.2
 (Enter /usr/site/hpc/x86_64/glibc-2.17/haswell/gaussian/g16_a.03/pgi-16.5/g16/l913.exe)
 CIDS:  MDV=   536870912.
 Frozen-core window:  NFC=   4 NFV=   0.
 IFCWin=0 IBDFC=1 NFBD=     0     0 NFCmp=     0     0 NFFFC=     0     0
 Using original routines for 1st iteration.
 Using DD4UQ or CC4UQ for 2nd and later iterations.
 Keep R2 and R3 ints in memory in symmetry-blocked form, NReq=29781365.
 FoFCou: FMM=F IPFlag=           0 FMFlag=           0 FMFlg1=           0
         NFxFlg=           0 DoJE=F BraDBF=F KetDBF=F FulRan=T
         wScrn=  0.000000 ICntrl=       600 IOpCl=  0 I1Cent=           0 NGrid=           0
         NMat0=    1 NMatS0=   7260 NMatT0=    0 NMatD0=    1 NMtDS0=    0 NMtDT0=    0
 Petite list used in FoFCou.
 CIDS: In Core Option IDoMem=           1.
 CCSD(T)
 =======
 Iterations= 300 Convergence= 0.100D-06
 Produce multiple copies of IABC intergrals
 Iteration Nr.   1
 **********************
 DD1Dir will call FoFMem   1 times, MxPair=       490
 NAB=   165 NAA=   105 NBB=    55.
 E(PMP3)=      -0.29994717715D+03
 MP4(R+Q)=  0.46697709D+00
 Maximum subspace dimension=  5
 A-vector RMS=  9.6416822D-03 Max=  1.6364993D+00 conv= 1.00D-05.
 RLE energy=       -0.8449625441
 E3=        0.14940891D-01        EUMP3=      -0.29994354150D+03
 E4(DQ)=    0.27872080D+00        UMP4(DQ)=   -0.29966482071D+03
 E4(SDQ)=   0.23673544D+00        UMP4(SDQ)=  -0.29970680607D+03
 VARIATIONAL ENERGIES WITH THE FIRST-ORDER WAVEFUNCTION:
 DE(Corr)= -0.70547171     E(Corr)=     -299.47567694    
 NORM(A)=   0.11468112D+01
 Iteration Nr.   2
 **********************
 DD1Dir will call FoFMem   1 times, MxPair=       490
 NAB=   165 NAA=   105 NBB=    55.
 A-vector RMS=  6.2639829D-03 Max=  1.2512950D+00 conv= 1.00D-05.
 RLE energy=       -0.9920223171
 DE(Corr)=  -1.1957681     E(CORR)=     -299.96597336     Delta=-4.90D-01
 NORM(A)=   0.11520861D+01
 Iteration Nr.   3
 **********************
 DD1Dir will call FoFMem   1 times, MxPair=       490
 NAB=   165 NAA=   105 NBB=    55.
 A-vector RMS=  1.3162804D-03 Max=  3.4934090D-01 conv= 1.00D-05.
 RLE energy=       -1.0392794485
 DE(Corr)=  -1.0766072     E(CORR)=     -299.84681243     Delta= 1.19D-01
 NORM(A)=   0.12307728D+01
 Iteration Nr.   4
 **********************
 DD1Dir will call FoFMem   1 times, MxPair=       490
 NAB=   165 NAA=   105 NBB=    55.
 A-vector RMS=  1.0419646D-03 Max=  3.7916431D-02 conv= 1.00D-05.
 RLE energy=       -1.0466948788
 DE(Corr)=  -1.0355445     E(CORR)=     -299.80574968     Delta= 4.11D-02
 NORM(A)=   0.12381193D+01
 Iteration Nr.   5
 **********************
 DD1Dir will call FoFMem   1 times, MxPair=       490
 NAB=   165 NAA=   105 NBB=    55.
 A-vector RMS=  8.5429452D-04 Max=  5.1239259D-02 conv= 1.00D-05.
 RLE energy=       -1.0431192587
 DE(Corr)=  -1.0343453     E(CORR)=     -299.80455048     Delta= 1.20D-03
 NORM(A)=   0.12321808D+01
 Iteration Nr.   6
 **********************
 DD1Dir will call FoFMem   1 times, MxPair=       490
 NAB=   165 NAA=   105 NBB=    55.
 A-vector RMS=  4.9414253D-04 Max=  1.0825189D-02 conv= 1.00D-05.
 RLE energy=       -1.0429497646
 DE(Corr)=  -1.0424473     E(CORR)=     -299.81265250     Delta=-8.10D-03
 NORM(A)=   0.12335353D+01
 Iteration Nr.   7
 **********************
 DD1Dir will call FoFMem   1 times, MxPair=       490
 NAB=   165 NAA=   105 NBB=    55.
 A-vector RMS=  2.2976334D-04 Max=  4.0269793D-03 conv= 1.00D-05.
 RLE energy=       -1.0445996527
 DE(Corr)=  -1.0434474     E(CORR)=     -299.81365268     Delta=-1.00D-03
 NORM(A)=   0.12366519D+01
 Iteration Nr.   8
 **********************
 DD1Dir will call FoFMem   1 times, MxPair=       490
 NAB=   165 NAA=   105 NBB=    55.
 A-vector RMS=  1.8038356D-04 Max=  1.2695831D-02 conv= 1.00D-05.
 RLE energy=       -1.0431344659
 DE(Corr)=  -1.0415195     E(CORR)=     -299.81172476     Delta= 1.93D-03
 NORM(A)=   0.12345843D+01
 Iteration Nr.   9
 **********************
 DD1Dir will call FoFMem   1 times, MxPair=       490
 NAB=   165 NAA=   105 NBB=    55.
 A-vector RMS=  6.0319665D-05 Max=  5.8449877D-03 conv= 1.00D-05.
 RLE energy=       -1.0438621725
 DE(Corr)=  -1.0443993     E(CORR)=     -299.81460454     Delta=-2.88D-03
 NORM(A)=   0.12361361D+01
 Iteration Nr.  10
 **********************
 DD1Dir will call FoFMem   1 times, MxPair=       490
 NAB=   165 NAA=   105 NBB=    55.
 A-vector RMS=  3.4173788D-05 Max=  4.0122715D-03 conv= 1.00D-05.
 RLE energy=       -1.0434896286
 DE(Corr)=  -1.0429354     E(CORR)=     -299.81314059     Delta= 1.46D-03
 NORM(A)=   0.12354544D+01
 Iteration Nr.  11
 **********************
 DD1Dir will call FoFMem   1 times, MxPair=       490
 NAB=   165 NAA=   105 NBB=    55.
 A-vector RMS=  1.3821504D-05 Max=  2.4090363D-04 conv= 1.00D-05.
 RLE energy=       -1.0434234487
 DE(Corr)=  -1.0435037     E(CORR)=     -299.81370895     Delta=-5.68D-04
 NORM(A)=   0.12354070D+01
 Iteration Nr.  12
 **********************
 DD1Dir will call FoFMem   1 times, MxPair=       490
 NAB=   165 NAA=   105 NBB=    55.
 A-vector RMS=  2.2288224D-05 Max=  7.9016581D-04 conv= 1.00D-05.
 RLE energy=       -1.0434875401
 DE(Corr)=  -1.0436214     E(CORR)=     -299.81382660     Delta=-1.18D-04
 NORM(A)=   0.12354965D+01
 Iteration Nr.  13
 **********************
 DD1Dir will call FoFMem   1 times, MxPair=       490
 NAB=   165 NAA=   105 NBB=    55.
 A-vector RMS=  7.6507924D-06 Max=  1.5805760D-04 conv= 1.00D-05.
 RLE energy=       -1.0435099810
 DE(Corr)=  -1.0434930     E(CORR)=     -299.81369819     Delta= 1.28D-04
 NORM(A)=   0.12355324D+01
 Iteration Nr.  14
 **********************
 DD1Dir will call FoFMem   1 times, MxPair=       490
 NAB=   165 NAA=   105 NBB=    55.
 A-vector RMS=  5.8901202D-06 Max=  2.5277120D-04 conv= 1.00D-05.
 RLE energy=       -1.0434647057
 DE(Corr)=  -1.0434475     E(CORR)=     -299.81365269     Delta= 4.55D-05
 NORM(A)=   0.12354573D+01
 Iteration Nr.  15
 **********************
 DD1Dir will call FoFMem   1 times, MxPair=       490
 NAB=   165 NAA=   105 NBB=    55.
 A-vector RMS=  2.5353969D-06 Max=  2.4681446D-04 conv= 1.00D-05.
 RLE energy=       -1.0434959159
 DE(Corr)=  -1.0435244     E(CORR)=     -299.81372958     Delta=-7.69D-05
 NORM(A)=   0.12355058D+01
 Iteration Nr.  16
 **********************
 DD1Dir will call FoFMem   1 times, MxPair=       490
 NAB=   165 NAA=   105 NBB=    55.
 A-vector RMS=  1.5301409D-06 Max=  1.0133318D-04 conv= 1.00D-05.
 RLE energy=       -1.0434822897
 DE(Corr)=  -1.0434713     E(CORR)=     -299.81367656     Delta= 5.30D-05
 NORM(A)=   0.12354782D+01
 Iteration Nr.  17
 **********************
 DD1Dir will call FoFMem   1 times, MxPair=       490
 NAB=   165 NAA=   105 NBB=    55.
 A-vector RMS=  1.3269883D-06 Max=  4.1686674D-05 conv= 1.00D-05.
 RLE energy=       -1.0434822426
 DE(Corr)=  -1.0434913     E(CORR)=     -299.81369655     Delta=-2.00D-05
 NORM(A)=   0.12354777D+01
 Iteration Nr.  18
 **********************
 DD1Dir will call FoFMem   1 times, MxPair=       490
 NAB=   165 NAA=   105 NBB=    55.
 A-vector RMS=  1.0499633D-06 Max=  3.9312480D-05 conv= 1.00D-05.
 RLE energy=       -1.0434876110
 DE(Corr)=  -1.0434920     E(CORR)=     -299.81369718     Delta=-6.33D-07
 NORM(A)=   0.12354840D+01
 Iteration Nr.  19
 **********************
 DD1Dir will call FoFMem   1 times, MxPair=       490
 NAB=   165 NAA=   105 NBB=    55.
 A-vector RMS=  1.1081891D-06 Max=  2.3902154D-05 conv= 1.00D-05.
 RLE energy=       -1.0434873149
 DE(Corr)=  -1.0434811     E(CORR)=     -299.81368638     Delta= 1.08D-05
 NORM(A)=   0.12354823D+01
 Iteration Nr.  20
 **********************
 DD1Dir will call FoFMem   1 times, MxPair=       490
 NAB=   165 NAA=   105 NBB=    55.
 A-vector RMS=  4.3341390D-07 Max=  2.7218331D-05 conv= 1.00D-05.
 RLE energy=       -1.0434825350
 DE(Corr)=  -1.0434804     E(CORR)=     -299.81368567     Delta= 7.09D-07
 NORM(A)=   0.12354741D+01
 Iteration Nr.  21
 **********************
 DD1Dir will call FoFMem   1 times, MxPair=       490
 NAB=   165 NAA=   105 NBB=    55.
 A-vector RMS=  3.1554173D-07 Max=  2.4470457D-05 conv= 1.00D-05.
 RLE energy=       -1.0434853409
 DE(Corr)=  -1.0434883     E(CORR)=     -299.81369357     Delta=-7.90D-06
 NORM(A)=   0.12354783D+01
 Iteration Nr.  22
 **********************
 DD1Dir will call FoFMem   1 times, MxPair=       490
 NAB=   165 NAA=   105 NBB=    55.
 A-vector RMS=  1.8266433D-07 Max=  9.5588985D-06 conv= 1.00D-05.
 RLE energy=       -1.0434838538
 DE(Corr)=  -1.0434830     E(CORR)=     -299.81368822     Delta= 5.35D-06
 NORM(A)=   0.12354755D+01
 Iteration Nr.  23
 **********************
 DD1Dir will call FoFMem   1 times, MxPair=       490
 NAB=   165 NAA=   105 NBB=    55.
 A-vector RMS=  1.1507413D-07 Max=  5.0169412D-06 conv= 1.00D-05.
 RLE energy=       -1.0434840704
 DE(Corr)=  -1.0434850     E(CORR)=     -299.81369027     Delta=-2.05D-06
 NORM(A)=   0.12354758D+01
 Iteration Nr.  24
 **********************
 DD1Dir will call FoFMem   1 times, MxPair=       490
 NAB=   165 NAA=   105 NBB=    55.
 A-vector RMS=  1.1355396D-07 Max=  2.4156196D-06 conv= 1.00D-05.
 RLE energy=       -1.0434844698
 DE(Corr)=  -1.0434846     E(CORR)=     -299.81368986     Delta= 4.11D-07
 NORM(A)=   0.12354765D+01
 Iteration Nr.  25
 **********************
 DD1Dir will call FoFMem   1 times, MxPair=       490
 NAB=   165 NAA=   105 NBB=    55.
 A-vector RMS=  7.3565555D-08 Max=  2.2954337D-06 conv= 1.00D-05.
 RLE energy=       -1.0434843850
 DE(Corr)=  -1.0434839     E(CORR)=     -299.81368917     Delta= 6.91D-07
 NORM(A)=   0.12354763D+01
 Iteration Nr.  26
 **********************
 DD1Dir will call FoFMem   1 times, MxPair=       490
 NAB=   165 NAA=   105 NBB=    55.
 A-vector RMS=  4.5933195D-08 Max=  1.3500605D-06 conv= 1.00D-05.
 RLE energy=       -1.0434840331
 DE(Corr)=  -1.0434841     E(CORR)=     -299.81368931     Delta=-1.45D-07
 NORM(A)=   0.12354758D+01
 Iteration Nr.  27
 **********************
 DD1Dir will call FoFMem   1 times, MxPair=       490
 NAB=   165 NAA=   105 NBB=    55.
 A-vector RMS=  3.1737079D-08 Max=  2.8073638D-06 conv= 1.00D-05.
 RLE energy=       -1.0434844002
 DE(Corr)=  -1.0434847     E(CORR)=     -299.81368996     Delta=-6.47D-07
 NORM(A)=   0.12354764D+01
 Iteration Nr.  28
 **********************
 DD1Dir will call FoFMem   1 times, MxPair=       490
 NAB=   165 NAA=   105 NBB=    55.
 A-vector RMS=  1.3073718D-08 Max=  1.1499362D-06 conv= 1.00D-05.
 RLE energy=       -1.0434842765
 DE(Corr)=  -1.0434841     E(CORR)=     -299.81368936     Delta= 5.96D-07
 NORM(A)=   0.12354763D+01
 Iteration Nr.  29
 **********************
 DD1Dir will call FoFMem   1 times, MxPair=       490
 NAB=   165 NAA=   105 NBB=    55.
 A-vector RMS=  1.6734248D-08 Max=  4.0823361D-07 conv= 1.00D-05.
 RLE energy=       -1.0434843201
 DE(Corr)=  -1.0434844     E(CORR)=     -299.81368961     Delta=-2.42D-07
 NORM(A)=   0.12354763D+01
 Iteration Nr.  30
 **********************
 DD1Dir will call FoFMem   1 times, MxPair=       490
 NAB=   165 NAA=   105 NBB=    55.
 A-vector RMS=  7.5989473D-09 Max=  1.8843096D-07 conv= 1.00D-05.
 RLE energy=       -1.0434843777
 DE(Corr)=  -1.0434843     E(CORR)=     -299.81368955     Delta= 5.76D-08
 NORM(A)=   0.12354765D+01
 CI/CC converged in   30 iterations to DelEn= 5.76D-08 Conv= 1.00D-07 ErrA1= 7.60D-09 Conv= 1.00D-05
 Wavefunction amplitudes converged. E(Corr)=     -299.81368955    
 Dominant configurations:
 ***********************
 Spin Case        I    J    A    B          Value
   ABAB          19   15   20   16      -0.474790D+00
 Largest amplitude= 4.75D-01
 Time for triples=      209.83 seconds.
 T4(CCSD)= -0.12016803D+00
 T5(CCSD)=  0.42144111D-02
 CCSD(T)= -0.29992964317D+03

 S**2, projected HF & approx projected MPn energies after annihilation of
 unwanted spin states (see manual for definitions):

 spins       (S**2,0) (S**2,1)    PUHF        PMP2        PMP3        PMP4
 annihilated
 s+1         5.99710  6.00163 -298.784289 -299.967332 -299.947174
 s+1,s+2     6.00004  5.99994 -298.783939 -299.967034 -299.946920
 s+1 to s+3  6.00000  6.00000 -298.783943 -299.967035 -299.946918
 s+1 to s+4  6.00000  6.00000 -298.783943 -299.967035 -299.946918
 s+1 to s+5  6.00000  6.00000 -298.783943
 s+1 to s+6  6.00000  6.00000 -298.783943

 Discarding MO integrals.
 Leave Link  913 at Sat Jan  7 07:32:50 2023, MaxMem=   536870912 cpu:             368.7 elap:              92.3
 (Enter /usr/site/hpc/x86_64/glibc-2.17/haswell/gaussian/g16_a.03/pgi-16.5/g16/l601.exe)
 Copying SCF densities to generalized density rwf, IOpCl= 1 IROHF=0.

 **********************************************************************

            Population analysis using the SCF density.

 **********************************************************************

 Orbital symmetries:
 Alpha Orbitals:
       Occupied  (SGG) (SGU) (SGG) (SGU) (SGG) (SGU) (SGG) (SGU)
                 (?A) (?B) (?A) (?B) (SGG) (SGU) (?A) (?B) (?A)
                 (?B) (SGG)
       Virtual   (SGU) (SGG) (SGU) (?A) (?B) (?A) (?B) (SGG) (SGU)
                 (?A) (?B) (?A) (?B) (SGU) (SGG) (SGG) (SGU) (PIU)
                 (PIG) (PIU) (PIG) (DLTG) (DLTU) (DLTG) (DLTU)
                 (DLTG) (DLTU) (DLTG) (DLTU) (SGG) (SGU) (PIU)
                 (PIG) (PIU) (PIG) (SGG) (SGU) (PIU) (PIG) (PIU)
                 (PIG) (SGG) (SGU) (PIU) (PIG) (PIU) (PIG) (?C)
                 (?D) (PIU) (PIG) (PIU) (PIG) (?C) (?D) (?C) (?D)
                 (?C) (?D) (PHIU) (PHIG) (PHIU) (PHIG) (PHIU) (PHIG)
                 (PHIU) (PHIG) (DLTG) (DLTU) (DLTG) (DLTU) (PIU)
                 (PIG) (PIU) (PIG) (DLTG) (DLTU) (DLTG) (DLTU)
                 (?E) (?F) (?E) (?F) (PIU) (PIG) (PIU) (PIG) (?E)
                 (?F) (SGG) (SGU) (SGG) (SGU) (PIU) (PIG) (PIU)
                 (PIG) (SGG) (SGU) (SGG) (SGU)
 Beta  Orbitals:
       Occupied  (SGG) (SGU) (SGG) (SGU) (SGG) (SGU) (SGG) (SGU)
                 (SGG) (SGU) (?A) (?B) (?A) (?B) (?A)
       Virtual   (?B) (?A) (?B) (SGG) (SGU) (SGG) (SGU) (SGG) (?A)
                 (?B) (?A) (?B) (SGU) (?A) (?B) (?A) (?B) (SGU)
                 (SGG) (SGG) (SGU) (PIU) (PIG) (PIU) (PIG) (DLTG)
                 (DLTG) (DLTU) (DLTU) (DLTG) (DLTG) (DLTU) (DLTU)
                 (SGG) (SGU) (PIU) (PIG) (PIU) (PIG) (SGG) (SGU)
                 (PIU) (PIG) (PIU) (PIG) (SGG) (SGU) (PIU) (PIG)
                 (PIU) (PIG) (SGG) (SGU) (PIU) (PIG) (PIU) (PIG)
                 (?C) (?D) (?C) (?D) (?C) (?D) (PHIU) (PHIU) (PHIG)
                 (PHIG) (PHIU) (PHIU) (PHIG) (PHIG) (DLTG) (DLTG)
                 (DLTU) (DLTU) (PIU) (PIG) (PIU) (PIG) (DLTG) (DLTU)
                 (DLTG) (DLTU) (?E) (?F) (?E) (?F) (PIU) (PIG)
                 (PIG) (PIU) (?E) (?F) (SGG) (SGU) (SGG) (SGU)
                 (PIU) (PIG) (PIU) (PIG) (SGG) (SGU) (SGG) (SGU)
 Unable to determine electronic state:  an orbital has unidentified symmetry.
 Alpha  occ. eigenvalues --  -20.24274 -20.24274 -20.20663 -20.20663  -1.11479
 Alpha  occ. eigenvalues --   -1.11477  -0.75357  -0.75319  -0.30078  -0.30070
 Alpha  occ. eigenvalues --   -0.27389  -0.27381  -0.25444  -0.24926  -0.09463
 Alpha  occ. eigenvalues --   -0.09451  -0.06945  -0.06929   0.42801
 Alpha virt. eigenvalues --    0.54353   1.05176   1.09569   1.10774   1.10959
 Alpha virt. eigenvalues --    1.12135   1.12290   1.14121   1.18858   1.19428
 Alpha virt. eigenvalues --    1.19816   1.20614   1.21034   1.33745   1.33753
 Alpha virt. eigenvalues --    1.83777   1.87038   1.94269   1.94279   1.95636
 Alpha virt. eigenvalues --    1.95646   1.95715   1.95715   1.95722   1.95725
 Alpha virt. eigenvalues --    2.27425   2.27426   2.27431   2.27434   2.65622
 Alpha virt. eigenvalues --    2.66378   2.80093   2.80186   2.81596   2.81689
 Alpha virt. eigenvalues --    2.90553   2.97994   4.32914   4.33013   4.34963
 Alpha virt. eigenvalues --    4.35051   4.43375   4.45345   4.56554   4.56724
 Alpha virt. eigenvalues --    4.58520   4.58698   5.44531   5.44588   5.52278
 Alpha virt. eigenvalues --    5.52291   5.53843   5.53857   5.59971   5.59974
 Alpha virt. eigenvalues --    5.60057   5.60057   5.67065   5.67158   5.87791
 Alpha virt. eigenvalues --    5.87791   5.87792   5.87792   6.00161   6.00161
 Alpha virt. eigenvalues --    6.00161   6.00161   6.34434   6.34435   6.34445
 Alpha virt. eigenvalues --    6.34446   6.95394   6.95401   6.97114   6.97121
 Alpha virt. eigenvalues --    7.00234   7.00236   7.00245   7.00245   7.18116
 Alpha virt. eigenvalues --    7.18149   7.18229   7.18229   7.20659   7.20659
 Alpha virt. eigenvalues --    7.22458   7.22458   7.23810   7.24591   7.41874
 Alpha virt. eigenvalues --    7.49815   7.70283   7.70719   7.84654   7.84686
 Alpha virt. eigenvalues --    7.86300   7.86332   8.54139   8.54202  10.86580
 Alpha virt. eigenvalues --   10.86604
  Beta  occ. eigenvalues --  -20.18445 -20.18445 -20.15600 -20.15600  -0.95252
  Beta  occ. eigenvalues --   -0.95245  -0.56299  -0.56221  -0.16189  -0.16066
  Beta  occ. eigenvalues --   -0.10447  -0.10120  -0.03260  -0.03250   0.24603
  Beta virt. eigenvalues --    0.34106   0.53466   0.53535   0.77008   0.79609
  Beta virt. eigenvalues --    1.14038   1.16950   1.18301   1.18330   1.18474
  Beta virt. eigenvalues --    1.20383   1.20467   1.22524   1.27436   1.27795
  Beta virt. eigenvalues --    1.30388   1.30780   1.35742   1.35755   1.88320
  Beta virt. eigenvalues --    1.91778   1.98461   1.98593   1.99714   1.99715
  Beta virt. eigenvalues --    2.00436   2.00440   2.00441   2.00445   2.34853
  Beta virt. eigenvalues --    2.34864   2.34887   2.34897   2.72379   2.73028
  Beta virt. eigenvalues --    2.86038   2.86123   2.86653   2.86725   2.95489
  Beta virt. eigenvalues --    3.02764   4.42655   4.42739   4.44312   4.44388
  Beta virt. eigenvalues --    4.48621   4.50527   4.66143   4.66312   4.67466
  Beta virt. eigenvalues --    4.67639   5.48788   5.48853   5.56489   5.56500
  Beta virt. eigenvalues --    5.56893   5.56905   5.63856   5.63857   5.63863
  Beta virt. eigenvalues --    5.63865   5.71157   5.71249   5.93422   5.93422
  Beta virt. eigenvalues --    5.93422   5.93422   6.05793   6.05793   6.05793
  Beta virt. eigenvalues --    6.05793   6.39543   6.39543   6.39543   6.39543
  Beta virt. eigenvalues --    7.03286   7.03293   7.03367   7.03373   7.11413
  Beta virt. eigenvalues --    7.11413   7.11414   7.11414   7.28226   7.28230
  Beta virt. eigenvalues --    7.28236   7.28236   7.28761   7.28761   7.29012
  Beta virt. eigenvalues --    7.29012   7.30226   7.30814   7.45580   7.53681
  Beta virt. eigenvalues --    7.75321   7.75722   7.89561   7.89593   7.89817
  Beta virt. eigenvalues --    7.89850   8.59982   8.60049  10.92110  10.92130
          Condensed to atoms (all electrons):
               1          2          3          4
     1  O    9.690836  -1.307927   0.000055   0.004004
     2  O   -1.307927   9.920901   0.000000   0.000055
     3  O    0.000055   0.000000   9.920901  -1.307927
     4  O    0.004004   0.000055  -1.307927   9.690836
          Atomic-Atomic Spin Densities.
               1          2          3          4
     1  O    2.790214  -1.683863   0.000056   0.003769
     2  O   -1.683863   2.573630   0.000000   0.000056
     3  O    0.000056   0.000000   2.573630  -1.683863
     4  O    0.003769   0.000056  -1.683863   2.790214
 Mulliken charges and spin densities:
               1          2
     1  O   -0.386970   1.110177
     2  O   -0.613030   0.889823
     3  O   -0.613030   0.889823
     4  O   -0.386970   1.110177
 Sum of Mulliken charges =  -2.00000   4.00000
 Mulliken charges and spin densities with hydrogens summed into heavy atoms:
               1          2
     1  O   -0.386970   1.110177
     2  O   -0.613030   0.889823
     3  O   -0.613030   0.889823
     4  O   -0.386970   1.110177
 Electronic spatial extent (au):  <R**2>=           1105.5259
 Charge=             -2.0000 electrons
 Dipole moment (field-independent basis, Debye):
    X=             -0.0000    Y=              0.0000    Z=              0.0000  Tot=              0.0000
 Quadrupole moment (field-independent basis, Debye-Ang):
   XX=            -25.1452   YY=            -23.9823   ZZ=           -119.7930
   XY=             -0.0000   XZ=              0.0000   YZ=             -0.0000
 Traceless Quadrupole moment (field-independent basis, Debye-Ang):
   XX=             31.1616   YY=             32.3245   ZZ=            -63.4861
   XY=             -0.0000   XZ=              0.0000   YZ=             -0.0000
 Octapole moment (field-independent basis, Debye-Ang**2):
  XXX=             -0.0000  YYY=              0.0000  ZZZ=             -0.0000  XYY=             -0.0000
  XXY=              0.0000  XXZ=             -0.0000  XZZ=             -0.0000  YZZ=              0.0000
  YYZ=              0.0000  XYZ=              0.0000
 Hexadecapole moment (field-independent basis, Debye-Ang**3):
 XXXX=            -20.2133 YYYY=            -18.7646 ZZZZ=          -2536.5008 XXXY=             -0.0000
 XXXZ=              0.0000 YYYX=             -0.0000 YYYZ=             -0.0000 ZZZX=              0.0000
 ZZZY=             -0.0000 XXYY=             -6.4962 XXZZ=           -226.8997 YYZZ=           -218.9214
 XXYZ=             -0.0000 YYXZ=              0.0000 ZZXY=             -0.0000
 N-N= 7.456798080062D+01 E-N=-8.761593461855D+02  KE= 2.997291431430D+02
 Symmetry AG   KE= 1.363850537597D+02
 Symmetry B1G  KE= 1.067262387687D-33
 Symmetry B2G  KE= 6.914093774102D+00
 Symmetry B3G  KE= 6.821837845160D+00
 Symmetry AU   KE= 1.066405000990D-33
 Symmetry B1U  KE= 1.335659785114D+02
 Symmetry B2U  KE= 6.819054368798D+00
 Symmetry B3U  KE= 9.223124883858D+00
 Symmetry AG   SP= 1.000000000000D+00
 Symmetry B1G  SP= 3.287389544588D-35
 Symmetry B2G  SP= 1.000000000000D+00
 Symmetry B3G  SP= 1.000000000000D+00
 Symmetry AU   SP= 3.157874029941D-35
 Symmetry B1U  SP= 5.453988055237D-15
 Symmetry B2U  SP= 1.000000000000D+00
 Symmetry B3U  SP=-3.737631375550D-15
 Leave Link  601 at Sat Jan  7 07:32:50 2023, MaxMem=   536870912 cpu:               0.4 elap:               0.1
 (Enter /usr/site/hpc/x86_64/glibc-2.17/haswell/gaussian/g16_a.03/pgi-16.5/g16/l9999.exe)
 1\1\GINC-N036\SP\UCCSD(T)-FC\CC-pVTZ\O4(2-,5)\ROOT\07-Jan-2023\0\\#p C
 CSD(T,MaxCyc=300)/cc-pVTZ Guess=Read SCF=XQC\\O2_O2_195\\-2,5\O,0,0.67
 619,0.,0.\O,0,-0.67619,0.,0.\O,0,6.374644,0.,0.\O,0,5.022264,0.,0.\\Ve
 rsion=ES64L-G16RevA.03\HF=-298.7702052\MP2=-299.9584824\MP3=-299.94354
 15\MP4D=-300.1317978\MP4DQ=-299.6648207\PUHF=-298.7842886\PMP2-0=-299.
 9673338\PMP3-0=-299.9471772\MP4SDQ=-299.7068061\CCSD=-299.8136895\CCSD
 (T)=-299.9296432\S2=6.10187\S2-1=6.024003\S2A=6.004006\RMSD=9.890e-09\
 PG=D*H [C*(O1O1.O1O1)]\\@


 "THE ACADEMIC HIERARCHY"


 THE PRESIDENT:
   LEAPS TALL BUILDINGS IN A SINGLE BOUND,
     IS MORE POWERFUL THAN A LOCOMOTIVE,
       IS FASTER THAN A SPEEDING BULLET,
         WALKS ON WATER,
           GIVES POLICY TO GOD.

 THE VICE PRESIDENT FOR ACADEMIC AFFAIRS:
   LEAPS SHORT BUILDINGS IN A SINGLE BOUND,
     IS MORE POWERFUL THAN A SWITCH ENGINE,
       IS JUST AS FAST AS A SPEEDING BULLET,
         WALKS ON WATER IF SEA IS CALM,
           TALKS WITH GOD.

 PROFESSOR:
   LEAPS SHORT BUILDINGS WITH A RUNNING START AND FAVORABLE WINDS,
     IS ALMOST AS POWERFUL AS A SWITCH ENGINE,
       CAN FIRE A SPEEDING BULLET,
         WALKS ON WATER IN AN INDOOR SWIMMING POOL,
          TALKS WITH GOD IF SPECIAL REQUEST IS APPROVED.

 ASSOCIATE PROFESSOR:
   BARELY CLEARS A QUONSET HUT,
     LOSES TUG OF WAR WITH LOCOMOTIVE,
       MISFIRES FREQUENTLY,
         SWIMS WELL,
           IS OCCASIONALLY ADDRESSED BY GOD.

 ASSISTANT PROFESSOR:
   MAKES HIGH MARKS ON WALLS WHEN TRYING TO LEAP TALL BUILDINGS,
     IS RUN OVER BY LOCOMOTIVES,
       CAN SOMETIMES HANDLE A GUN WITHOUT INFLICTING SELF INJURY,
         DOG PADDLES,
           TALKS TO ANIMALS.

 GRADUATE STUDENT:
   RUNS INTO BUILDINGS,
     RECOGNIZES LOCOMOTIVES TWO OUT OF THREE TIMES,
       IS NOT ISSUED AMMUNITION,
         CAN STAY AFLOAT WITH A LIFE JACKET,
           TALKS TO WALLS.

 UNDERGRADUATE AND WORK STUDY STUDENT:
   FALLS OVER DOORSTEP WHEN TRYING TO ENTER BUILDINGS,
     SAYS, "LOOK AT THE CHOO-CHOO,"
       WETS HIMSELF WITH A WATER PISTOL,
        PLAYS IN MUD PUDDLES,
          MUMBLES TO HIMSELF.

 DEPARTMENT SECRETARY:
   LIFTS TALL BUILDINGS AND WALKS UNDER THEM,
     KICKS LOCOMOTIVES OFF THE TRACKS,
       CATCHES SPEEDING BULLETS IN HER TEETH AND EATS THEM,
         FREEZES WATER WITH A SINGLE GLANCE,
           IS GOD.
 Job cpu time:       0 days  0 hours  6 minutes 26.0 seconds.
 Elapsed time:       0 days  0 hours  1 minutes 36.7 seconds.
 File lengths (MBytes):  RWF=    848 Int=      0 D2E=      0 Chk=     16 Scr=     16
 Normal termination of Gaussian 16 at Sat Jan  7 07:32:50 2023.
