 Entering Gaussian System, Link 0=g16
 Input=O2_O2_22.com
 Output=O2_O2_22.log
 Initial command:
 /usr/site/hpc/x86_64/glibc-2.17/broadwell/gaussian/g16_a.03/pgi-16.5/g16/l1.exe "/gpfs/gpfs1/scratch/c7441284/ForceFieldModel/O2_NA_4/Gau-1389796.inp" -scrdir="/gpfs/gpfs1/scratch/c7441284/ForceFieldModel/O2_NA_4/"
 Entering Link 1 = /usr/site/hpc/x86_64/glibc-2.17/broadwell/gaussian/g16_a.03/pgi-16.5/g16/l1.exe PID=   1389797.
  
 Copyright (c) 1988,1990,1992,1993,1995,1998,2003,2009,2016,
            Gaussian, Inc.  All Rights Reserved.
  
 This is part of the Gaussian(R) 16 program.  It is based on
 the Gaussian(R) 09 system (copyright 2009, Gaussian, Inc.),
 the Gaussian(R) 03 system (copyright 2003, Gaussian, Inc.),
 the Gaussian(R) 98 system (copyright 1998, Gaussian, Inc.),
 the Gaussian(R) 94 system (copyright 1995, Gaussian, Inc.),
 the Gaussian 92(TM) system (copyright 1992, Gaussian, Inc.),
 the Gaussian 90(TM) system (copyright 1990, Gaussian, Inc.),
 the Gaussian 88(TM) system (copyright 1988, Gaussian, Inc.),
 the Gaussian 86(TM) system (copyright 1986, Carnegie Mellon
 University), and the Gaussian 82(TM) system (copyright 1983,
 Carnegie Mellon University). Gaussian is a federally registered
 trademark of Gaussian, Inc.
  
 This software contains proprietary and confidential information,
 including trade secrets, belonging to Gaussian, Inc.
  
 This software is provided under written license and may be
 used, copied, transmitted, or stored only in accord with that
 written license.
  
 The following legend is applicable only to US Government
 contracts under FAR:
  
                    RESTRICTED RIGHTS LEGEND
  
 Use, reproduction and disclosure by the US Government is
 subject to restrictions as set forth in subparagraphs (a)
 and (c) of the Commercial Computer Software - Restricted
 Rights clause in FAR 52.227-19.
  
 Gaussian, Inc.
 340 Quinnipiac St., Bldg. 40, Wallingford CT 06492
  
  
 ---------------------------------------------------------------
 Warning -- This program may not be used in any manner that
 competes with the business of Gaussian, Inc. or will provide
 assistance to any competitor of Gaussian, Inc.  The licensee
 of this program is prohibited from giving any competitor of
 Gaussian, Inc. access to this program.  By using this program,
 the user acknowledges that Gaussian, Inc. is engaged in the
 business of creating and licensing software in the field of
 computational chemistry and represents and warrants to the
 licensee that it is not a competitor of Gaussian, Inc. and that
 it will not use this program in any manner prohibited above.
 ---------------------------------------------------------------
  

 Cite this work as:
 Gaussian 16, Revision A.03,
 M. J. Frisch, G. W. Trucks, H. B. Schlegel, G. E. Scuseria, 
 M. A. Robb, J. R. Cheeseman, G. Scalmani, V. Barone, 
 G. A. Petersson, H. Nakatsuji, X. Li, M. Caricato, A. V. Marenich, 
 J. Bloino, B. G. Janesko, R. Gomperts, B. Mennucci, H. P. Hratchian, 
 J. V. Ortiz, A. F. Izmaylov, J. L. Sonnenberg, D. Williams-Young, 
 F. Ding, F. Lipparini, F. Egidi, J. Goings, B. Peng, A. Petrone, 
 T. Henderson, D. Ranasinghe, V. G. Zakrzewski, J. Gao, N. Rega, 
 G. Zheng, W. Liang, M. Hada, M. Ehara, K. Toyota, R. Fukuda, 
 J. Hasegawa, M. Ishida, T. Nakajima, Y. Honda, O. Kitao, H. Nakai, 
 T. Vreven, K. Throssell, J. A. Montgomery, Jr., J. E. Peralta, 
 F. Ogliaro, M. J. Bearpark, J. J. Heyd, E. N. Brothers, K. N. Kudin, 
 V. N. Staroverov, T. A. Keith, R. Kobayashi, J. Normand, 
 K. Raghavachari, A. P. Rendell, J. C. Burant, S. S. Iyengar, 
 J. Tomasi, M. Cossi, J. M. Millam, M. Klene, C. Adamo, R. Cammi, 
 J. W. Ochterski, R. L. Martin, K. Morokuma, O. Farkas, 
 J. B. Foresman, and D. J. Fox, Gaussian, Inc., Wallingford CT, 2016.
 
 ******************************************
 Gaussian 16:  ES64L-G16RevA.03 25-Dec-2016
                15-Jan-2023 
 ******************************************
 %NProcShared=6
 Will use up to    6 processors via shared memory.
 %Mem=5GB
 %OldChk=O2_O2_21.chk
 %Chk=O2_O2_22.chk
 Copying data from "O2_O2_21.chk" to current chk file "O2_O2_22.chk"
 IOpt=  2 FromEx=T IUOpen= 4 IOptOp= 5 NList=   0 IFRang= 0 IUIn= 4 IUOut= 2.
 ---------------------------------------------------------------
 #p ROCCSD(T)/cc-pVTZ Guess=Read SCF=(VeryTight,CDIIS,VShift=10)
 ---------------------------------------------------------------
 1/38=1,172=1/1;
 2/12=2,17=6,18=5,40=1/2;
 3/5=16,6=1,11=2,25=1,30=1,116=101/1,2,3;
 4/5=1/1;
 5/5=2,10=10,17=3,22=12,38=6/2;
 8/5=-1,6=4,9=120000,10=1/1,4;
 9/5=7,14=2/13;
 6/7=2,8=2,9=2,10=2/1;
 99/5=1,9=1/99;
 Leave Link    1 at Sun Jan 15 00:05:50 2023, MaxMem=   671088640 cpu:               0.6 elap:               0.1
 (Enter /usr/site/hpc/x86_64/glibc-2.17/broadwell/gaussian/g16_a.03/pgi-16.5/g16/l101.exe)
 --------
 O2_O2_22
 --------
 Symbolic Z-matrix:
 Charge = -1 Multiplicity = 4
 O                     0.67619   0.        0. 
 O                    -0.67619   0.        0. 
 O                     3.92521   0.        0. 
 O                     2.57283   0.        0. 
 
 ITRead=  0  0  0  0
 MicOpt= -1 -1 -1 -1
 NAtoms=      4 NQM=        4 NQMF=       0 NMMI=      0 NMMIF=      0
                NMic=       0 NMicF=      0.
                    Isotopes and Nuclear Properties:
 (Nuclear quadrupole moments (NQMom) in fm**2, nuclear magnetic moments (NMagM)
  in nuclear magnetons)

  Atom         1           2           3           4
 IAtWgt=          16          16          16          16
 AtmWgt=  15.9949146  15.9949146  15.9949146  15.9949146
 NucSpn=           0           0           0           0
 AtZEff=  -0.0000000  -0.0000000  -0.0000000  -0.0000000
 NQMom=    0.0000000   0.0000000   0.0000000   0.0000000
 NMagM=    0.0000000   0.0000000   0.0000000   0.0000000
 AtZNuc=   8.0000000   8.0000000   8.0000000   8.0000000
 Leave Link  101 at Sun Jan 15 00:05:51 2023, MaxMem=   671088640 cpu:               0.6 elap:               0.1
 (Enter /usr/site/hpc/x86_64/glibc-2.17/broadwell/gaussian/g16_a.03/pgi-16.5/g16/l202.exe)
                          Input orientation:                          
 ---------------------------------------------------------------------
 Center     Atomic      Atomic             Coordinates (Angstroms)
 Number     Number       Type             X           Y           Z
 ---------------------------------------------------------------------
      1          8           0        0.676190    0.000000    0.000000
      2          8           0       -0.676190    0.000000    0.000000
      3          8           0        3.925210    0.000000    0.000000
      4          8           0        2.572830    0.000000    0.000000
 ---------------------------------------------------------------------
                    Distance matrix (angstroms):
                    1          2          3          4
     1  O    0.000000
     2  O    1.352380   0.000000
     3  O    3.249020   4.601400   0.000000
     4  O    1.896640   3.249020   1.352380   0.000000
 Stoichiometry    O4(1-,4)
 Framework group  D*H[C*(OO.OO)]
 Deg. of freedom     2
 Full point group                 D*H     NOp   8
 Largest Abelian subgroup         D2H     NOp   8
 Largest concise Abelian subgroup C2      NOp   2
                         Standard orientation:                         
 ---------------------------------------------------------------------
 Center     Atomic      Atomic             Coordinates (Angstroms)
 Number     Number       Type             X           Y           Z
 ---------------------------------------------------------------------
      1          8           0        0.000000    0.000000    0.948320
      2          8           0        0.000000    0.000000    2.300700
      3          8           0        0.000000    0.000000   -2.300700
      4          8           0        0.000000    0.000000   -0.948320
 ---------------------------------------------------------------------
 Rotational constants (GHZ):           0.0000000           2.5511563           2.5511563
 Leave Link  202 at Sun Jan 15 00:05:51 2023, MaxMem=   671088640 cpu:               0.1 elap:               0.0
 (Enter /usr/site/hpc/x86_64/glibc-2.17/broadwell/gaussian/g16_a.03/pgi-16.5/g16/l301.exe)
 Standard basis: CC-pVTZ (5D, 7F)
 Ernie: Thresh=  0.10000D-02 Tol=  0.10000D-05 Strict=F.
 Ernie:  12 primitive shells out of 104 were deleted.
 There are    32 symmetry adapted cartesian basis functions of AG  symmetry.
 There are     6 symmetry adapted cartesian basis functions of B1G symmetry.
 There are    16 symmetry adapted cartesian basis functions of B2G symmetry.
 There are    16 symmetry adapted cartesian basis functions of B3G symmetry.
 There are     6 symmetry adapted cartesian basis functions of AU  symmetry.
 There are    32 symmetry adapted cartesian basis functions of B1U symmetry.
 There are    16 symmetry adapted cartesian basis functions of B2U symmetry.
 There are    16 symmetry adapted cartesian basis functions of B3U symmetry.
 There are    26 symmetry adapted basis functions of AG  symmetry.
 There are     6 symmetry adapted basis functions of B1G symmetry.
 There are    14 symmetry adapted basis functions of B2G symmetry.
 There are    14 symmetry adapted basis functions of B3G symmetry.
 There are     6 symmetry adapted basis functions of AU  symmetry.
 There are    26 symmetry adapted basis functions of B1U symmetry.
 There are    14 symmetry adapted basis functions of B2U symmetry.
 There are    14 symmetry adapted basis functions of B3U symmetry.
   120 basis functions,   208 primitive gaussians,   140 cartesian basis functions
    18 alpha electrons       15 beta electrons
       nuclear repulsion energy        96.1499874726 Hartrees.
 IExCor=    0 DFT=F Ex=HF Corr=None ExCW=0 ScaHFX=  1.000000
 ScaDFX=  1.000000  1.000000  1.000000  1.000000 ScalE2=  1.000000  1.000000
 IRadAn=      5 IRanWt=     -1 IRanGd=            0 ICorTp=0 IEmpDi=  4
 NAtoms=    4 NActive=    4 NUniq=    2 SFac= 4.00D+00 NAtFMM=   60 NAOKFM=F Big=F
 Integral buffers will be    131072 words long.
 Raffenetti 2 integral format.
 Two-electron integral symmetry is turned on.
 Leave Link  301 at Sun Jan 15 00:05:51 2023, MaxMem=   671088640 cpu:               0.4 elap:               0.1
 (Enter /usr/site/hpc/x86_64/glibc-2.17/broadwell/gaussian/g16_a.03/pgi-16.5/g16/l302.exe)
 NPDir=0 NMtPBC=     1 NCelOv=     1 NCel=       1 NClECP=     1 NCelD=      1
         NCelK=      1 NCelE2=     1 NClLst=     1 CellRange=     0.0.
 One-electron integrals computed using PRISM.
 One-electron integral symmetry used in STVInt
 NBasis=   120 RedAO= T EigKep=  3.57D-03  NBF=    26     6    14    14     6    26    14    14
 NBsUse=   120 1.00D-06 EigRej= -1.00D+00 NBFU=    26     6    14    14     6    26    14    14
 Leave Link  302 at Sun Jan 15 00:05:51 2023, MaxMem=   671088640 cpu:               0.7 elap:               0.1
 (Enter /usr/site/hpc/x86_64/glibc-2.17/broadwell/gaussian/g16_a.03/pgi-16.5/g16/l303.exe)
 DipDrv:  MaxL=1.
 Leave Link  303 at Sun Jan 15 00:05:51 2023, MaxMem=   671088640 cpu:               0.2 elap:               0.1
 (Enter /usr/site/hpc/x86_64/glibc-2.17/broadwell/gaussian/g16_a.03/pgi-16.5/g16/l401.exe)
 Initial guess from the checkpoint file:  "O2_O2_22.chk"
 B after Tr=     0.000000    0.000000    0.000000
         Rot=    1.000000    0.000000    0.000000    0.000000 Ang=   0.00 deg.
 Guess basis will be translated and rotated to current coordinates.
 JPrj=2 DoOrth=T DoCkMO=T.
 Initial guess orbital symmetries:
       Occupied  (SGU) (SGG) (SGG) (SGU) (SGG) (SGU) (SGG) (SGU)
                 (SGG) (?A) (?B) (?A) (SGU) (?B) (?A) (?B) (?A)
                 (?B)
       Virtual   (SGG) (SGU) (SGU) (SGG) (PIU) (PIU) (PIG) (PIG)
                 (PIU) (PIU) (SGU) (SGG) (PIG) (PIG) (SGG) (PIU)
                 (?C) (PIU) (?D) (?D) (?C) (?C) (?D) (PIG) (PIG)
                 (?E) (DLTG) (DLTG) (?E) (?E) (SGG) (PIU) (PIU)
                 (SGU) (SGG) (PIG) (PIG) (SGU) (PIU) (PIU) (PIG)
                 (PIG) (SGG) (PIU) (PIU) (PIG) (PIG) (SGU) (?F)
                 (PIU) (PIU) (?G) (?G) (?G) (?F) (?F) (PIG) (PIG)
                 (SGG) (PHIU) (PHIU) (PHIG) (PHIG) (PHIU) (PHIU)
                 (PHIG) (PHIG) (?H) (DLTG) (DLTG) (?H) (?H) (PIU)
                 (PIU) (?H) (?H) (PIG) (DLTU) (DLTU) (PIG) (?H)
                 (PIU) (?H) (?H) (PIU) (DLTU) (DLTU) (SGU) (PIG)
                 (PIG) (SGU) (SGG) (SGG) (PIU) (PIU) (PIG) (PIG)
                 (SGU) (SGG) (SGU) (SGG) (SGU)
 Leave Link  401 at Sun Jan 15 00:05:51 2023, MaxMem=   671088640 cpu:               0.7 elap:               0.1
 (Enter /usr/site/hpc/x86_64/glibc-2.17/broadwell/gaussian/g16_a.03/pgi-16.5/g16/l502.exe)
 Keep R1 and R2 ints in memory in symmetry-blocked form, NReq=29773135.
 FoFCou: FMM=F IPFlag=           0 FMFlag=           0 FMFlg1=           0
         NFxFlg=           0 DoJE=F BraDBF=F KetDBF=F FulRan=T
         wScrn=  0.000000 ICntrl=       600 IOpCl=  0 I1Cent=           0 NGrid=           0
         NMat0=    1 NMatS0=   7260 NMatT0=    0 NMatD0=    1 NMtDS0=    0 NMtDT0=    0
 Petite list used in FoFCou.
 Restricted open shell SCF:
 Using DIIS extrapolation, IDIIS=    10.
 NGot=   671088640 LenX=   664240612 LenY=   664220571
 Requested convergence on RMS density matrix=1.00D-08 within 128 cycles.
 Requested convergence on MAX density matrix=1.00D-06.
 Requested convergence on             energy=1.00D-06.
 Virtual orbitals will be shifted by   0.010 hartree.
 No special actions if energy rises.

 Cycle   1  Pass 1  IDiag  1:
 E= -299.196628033754    
 DIIS: error= 6.29D-04 at cycle   1 NSaved=   1.
 NSaved= 1 IEnMin= 1 EnMin= -299.196628033754     IErMin= 1 ErrMin= 6.29D-04
 ErrMax= 6.29D-04  0.00D+00 EMaxC= 1.00D+00 BMatC= 9.81D-06 BMatP= 9.81D-06
 IDIUse=1 WtCom= 1.00D+00 WtEn= 0.00D+00
 Coeff-Com:  0.100D+01
 Coeff:      0.100D+01
 Gap=     0.507 Goal=   None    Shift=    0.010
 RMSDP=3.80D-05 MaxDP=1.16D-03              OVMax= 1.41D-03

 Cycle   2  Pass 1  IDiag  1:
 E= -299.196641720727     Delta-E=       -0.000013686973 Rises=F Damp=F
 DIIS: error= 1.14D-04 at cycle   2 NSaved=   2.
 NSaved= 2 IEnMin= 2 EnMin= -299.196641720727     IErMin= 2 ErrMin= 1.14D-04
 ErrMax= 1.14D-04  0.00D+00 EMaxC= 1.00D+00 BMatC= 9.85D-07 BMatP= 9.81D-06
 IDIUse=1 WtCom= 1.00D+00 WtEn= 0.00D+00
 Coeff-Com: -0.536D-01 0.105D+01
 Coeff:     -0.536D-01 0.105D+01
 Gap=     0.507 Goal=   None    Shift=    0.010
 RMSDP=9.97D-06 MaxDP=2.01D-04 DE=-1.37D-05 OVMax= 3.91D-04

 Cycle   3  Pass 1  IDiag  1:
 E= -299.196641841658     Delta-E=       -0.000000120931 Rises=F Damp=F
 DIIS: error= 1.69D-04 at cycle   3 NSaved=   3.
 NSaved= 3 IEnMin= 3 EnMin= -299.196641841658     IErMin= 2 ErrMin= 1.14D-04
 ErrMax= 1.69D-04  0.00D+00 EMaxC= 1.00D+00 BMatC= 1.64D-06 BMatP= 9.85D-07
 IDIUse=1 WtCom= 1.00D+00 WtEn= 0.00D+00
 Coeff-Com: -0.109D+00 0.658D+00 0.451D+00
 Coeff:     -0.109D+00 0.658D+00 0.451D+00
 Gap=     0.507 Goal=   None    Shift=    0.010
 RMSDP=5.34D-06 MaxDP=1.14D-04 DE=-1.21D-07 OVMax= 2.45D-04

 Cycle   4  Pass 1  IDiag  1:
 E= -299.196643004930     Delta-E=       -0.000001163272 Rises=F Damp=F
 DIIS: error= 1.72D-05 at cycle   4 NSaved=   4.
 NSaved= 4 IEnMin= 4 EnMin= -299.196643004930     IErMin= 4 ErrMin= 1.72D-05
 ErrMax= 1.72D-05  0.00D+00 EMaxC= 1.00D+00 BMatC= 1.48D-08 BMatP= 9.85D-07
 IDIUse=1 WtCom= 1.00D+00 WtEn= 0.00D+00
 Coeff-Com: -0.188D-01 0.655D-01 0.327D-01 0.921D+00
 Coeff:     -0.188D-01 0.655D-01 0.327D-01 0.921D+00
 Gap=     0.507 Goal=   None    Shift=    0.010
 RMSDP=1.61D-06 MaxDP=2.86D-05 DE=-1.16D-06 OVMax= 5.41D-05

 Cycle   5  Pass 1  IDiag  1:
 E= -299.196643059545     Delta-E=       -0.000000054614 Rises=F Damp=F
 DIIS: error= 1.82D-05 at cycle   5 NSaved=   5.
 NSaved= 5 IEnMin= 5 EnMin= -299.196643059545     IErMin= 4 ErrMin= 1.72D-05
 ErrMax= 1.82D-05  0.00D+00 EMaxC= 1.00D+00 BMatC= 1.18D-08 BMatP= 1.48D-08
 IDIUse=1 WtCom= 1.00D+00 WtEn= 0.00D+00
 Coeff-Com:  0.148D-01-0.856D-01-0.133D+00 0.936D-01 0.111D+01
 Coeff:      0.148D-01-0.856D-01-0.133D+00 0.936D-01 0.111D+01
 Gap=     0.507 Goal=   None    Shift=    0.010
 RMSDP=1.23D-06 MaxDP=2.65D-05 DE=-5.46D-08 OVMax= 5.41D-05

 Cycle   6  Pass 1  IDiag  1:
 E= -299.196643088708     Delta-E=       -0.000000029164 Rises=F Damp=F
 DIIS: error= 1.13D-05 at cycle   6 NSaved=   6.
 NSaved= 6 IEnMin= 6 EnMin= -299.196643088708     IErMin= 6 ErrMin= 1.13D-05
 ErrMax= 1.13D-05  0.00D+00 EMaxC= 1.00D+00 BMatC= 6.43D-09 BMatP= 1.18D-08
 IDIUse=1 WtCom= 1.00D+00 WtEn= 0.00D+00
 Coeff-Com: -0.421D-02 0.393D-01-0.284D-01-0.666D-01-0.719D+00 0.178D+01
 Coeff:     -0.421D-02 0.393D-01-0.284D-01-0.666D-01-0.719D+00 0.178D+01
 Gap=     0.507 Goal=   None    Shift=    0.010
 RMSDP=1.16D-06 MaxDP=2.71D-05 DE=-2.92D-08 OVMax= 4.71D-05

 Cycle   7  Pass 1  IDiag  1:
 E= -299.196643105308     Delta-E=       -0.000000016600 Rises=F Damp=F
 DIIS: error= 5.50D-06 at cycle   7 NSaved=   7.
 NSaved= 7 IEnMin= 7 EnMin= -299.196643105308     IErMin= 7 ErrMin= 5.50D-06
 ErrMax= 5.50D-06  0.00D+00 EMaxC= 1.00D+00 BMatC= 1.88D-09 BMatP= 6.43D-09
 IDIUse=1 WtCom= 1.00D+00 WtEn= 0.00D+00
 Coeff-Com: -0.160D-02 0.738D-02-0.822D-02 0.650D-01-0.335D-01-0.663D+00
 Coeff-Com:  0.163D+01
 Coeff:     -0.160D-02 0.738D-02-0.822D-02 0.650D-01-0.335D-01-0.663D+00
 Coeff:      0.163D+01
 Gap=     0.507 Goal=   None    Shift=    0.010
 RMSDP=6.90D-07 MaxDP=1.52D-05 DE=-1.66D-08 OVMax= 2.73D-05

 Cycle   8  Pass 1  IDiag  1:
 E= -299.196643109129     Delta-E=       -0.000000003820 Rises=F Damp=F
 DIIS: error= 1.18D-06 at cycle   8 NSaved=   8.
 NSaved= 8 IEnMin= 8 EnMin= -299.196643109129     IErMin= 8 ErrMin= 1.18D-06
 ErrMax= 1.18D-06  0.00D+00 EMaxC= 1.00D+00 BMatC= 8.22D-11 BMatP= 1.88D-09
 IDIUse=1 WtCom= 1.00D+00 WtEn= 0.00D+00
 Coeff-Com:  0.613D-03-0.475D-02-0.275D-02 0.174D-01 0.684D-01-0.157D+00
 Coeff-Com: -0.128D+00 0.121D+01
 Coeff:      0.613D-03-0.475D-02-0.275D-02 0.174D-01 0.684D-01-0.157D+00
 Coeff:     -0.128D+00 0.121D+01
 Gap=     0.507 Goal=   None    Shift=    0.010
 RMSDP=1.52D-07 MaxDP=3.21D-06 DE=-3.82D-09 OVMax= 5.81D-06

 Cycle   9  Pass 1  IDiag  1:
 E= -299.196643109272     Delta-E=       -0.000000000143 Rises=F Damp=F
 DIIS: error= 4.92D-08 at cycle   9 NSaved=   9.
 NSaved= 9 IEnMin= 9 EnMin= -299.196643109272     IErMin= 9 ErrMin= 4.92D-08
 ErrMax= 4.92D-08  0.00D+00 EMaxC= 1.00D+00 BMatC= 8.65D-14 BMatP= 8.22D-11
 IDIUse=1 WtCom= 1.00D+00 WtEn= 0.00D+00
 Coeff-Com:  0.195D-04-0.992D-04 0.470D-04-0.873D-03-0.987D-03 0.155D-01
 Coeff-Com: -0.325D-01 0.390D-02 0.101D+01
 Coeff:      0.195D-04-0.992D-04 0.470D-04-0.873D-03-0.987D-03 0.155D-01
 Coeff:     -0.325D-01 0.390D-02 0.101D+01
 Gap=     0.507 Goal=   None    Shift=    0.010
 RMSDP=5.60D-09 MaxDP=1.07D-07 DE=-1.43D-10 OVMax= 1.64D-07

 SCF Done:  E(ROHF) =  -299.196643109     A.U. after    9 cycles
            NFock=  9  Conv=0.56D-08     -V/T= 2.0006
 <Sx>= 0.0000 <Sy>= 0.0000 <Sz>= 1.5000 <S**2>= 3.7500 S= 1.5000
 <L.S>= 0.000000000000E+00
 KE= 2.990062093583D+02 PE=-9.123788975227D+02 EE= 2.180260575825D+02
 Annihilation of the first spin contaminant:
 S**2 before annihilation     3.7500,   after     3.7500
 Leave Link  502 at Sun Jan 15 00:05:52 2023, MaxMem=   671088640 cpu:               5.5 elap:               1.0
 (Enter /usr/site/hpc/x86_64/glibc-2.17/broadwell/gaussian/g16_a.03/pgi-16.5/g16/l801.exe)
 Windowed orbitals will be sorted by symmetry type.
 GenMOA:  NOpAll=  8 NOp2=8 NOpUse=  8 JSym2X=1
 FoFJK:  IHMeth= 1 ICntrl=       0 DoSepK=F KAlg= 0 I1Cent=           0 FoldK=F
 IRaf=         0 NMat=       1 IRICut=       1 DoRegI=T DoRafI=F ISym2E= 1 IDoP0=0 IntGTp=1.
 FoFCou: FMM=F IPFlag=           0 FMFlag=      100000 FMFlg1=           0
         NFxFlg=           0 DoJE=F BraDBF=F KetDBF=F FulRan=T
         wScrn=  0.000000 ICntrl=         0 IOpCl=  1 I1Cent=           0 NGrid=           0
         NMat0=    1 NMatS0=      1 NMatT0=    0 NMatD0=    1 NMtDS0=    0 NMtDT0=    0
 Petite list used in FoFCou.
 <Sx>= 0.0000 <Sy>= 0.0000 <Sz>= 1.5000 <S**2>= 3.7500 S= 1.5000
 ExpMin= 2.14D-01 ExpMax= 1.53D+04 ExpMxC= 5.22D+02 IAcc=3 IRadAn=         5 AccDes= 0.00D+00
 HarFok:  IExCor=  205 AccDes= 0.00D+00 IRadAn=         5 IDoV=-2 UseB2=F ITyADJ=14
 ICtDFT= 12500011 ScaDFX=  1.000000  1.000000  1.000000  1.000000
 Largest valence mixing into a core orbital is  1.27D-04
 Largest core mixing into a valence orbital is  2.32D-05
 Largest valence mixing into a core orbital is  1.41D-04
 Largest core mixing into a valence orbital is  3.94D-05
 Range of M.O.s used for correlation:     5   120
 NBasis=   120 NAE=    18 NBE=    15 NFC=     4 NFV=     0
 NROrb=    116 NOA=    14 NOB=    11 NVA=   102 NVB=   105
 Singles contribution to E2=   -0.1809283696D-01
 Leave Link  801 at Sun Jan 15 00:05:52 2023, MaxMem=   671088640 cpu:               2.1 elap:               0.4
 (Enter /usr/site/hpc/x86_64/glibc-2.17/broadwell/gaussian/g16_a.03/pgi-16.5/g16/l804.exe)
 Open-shell transformation, MDV=   671088640 ITran=4 ISComp=2.
 Unit  1 TFree=        725311 TCopy=        511928.
 Semi-Direct transformation.
 ModeAB=           4 MOrb=            14 LenV=     670515639
 LASXX=      1277701 LTotXX=     1277701 LenRXX=     2614429
 LTotAB=     1336728 MaxLAS=     7666904 LenRXY=           0
 NonZer=     3892130 LenScr=     6291456 LnRSAI=     7666904
 LnScr1=    11534336 LExtra=           0 Total=     28107125
 MaxDsk=          -1 SrtSym=           T ITran=            4
 DoSDTr:  NPSUse=  6
 JobTyp=1 Pass  1:  I=   1 to  14.
 (rs|ai) integrals will be sorted in core.
 Complete sort for first half transformation.
 First half transformation complete.
 Begin second half transformation for I=  10.
 Complete sort for second half transformation.
 Second half transformation complete.
 ModeAB=           4 MOrb=            11 LenV=     670515639
 LASXX=      1028590 LTotXX=     1028590 LenRXX=     1855960
 LTotAB=      827370 MaxLAS=     6023996 LenRXY=           0
 NonZer=     2884550 LenScr=     4718592 LnRSAI=     6023996
 LnScr1=     9437184 LExtra=           0 Total=     22035732
 MaxDsk=          -1 SrtSym=           T ITran=            4
 DoSDTr:  NPSUse=  6
 JobTyp=2 Pass  1:  I=   1 to  11.
 (rs|ai) integrals will be sorted in core.
 Complete sort for first half transformation.
 First half transformation complete.
 Begin second half transformation for I=  10.
 Complete sort for second half transformation.
 Second half transformation complete.
 Spin components of T(2) and E(2):
     alpha-alpha T2 =       0.2876251466D-01 E2=     -0.1271310214D+00
     alpha-beta  T2 =       0.1807107210D+00 E2=     -0.6897890505D+00
     beta-beta   T2 =       0.5076813735D-01 E2=     -0.1334875032D+00
 ANorm=    0.1127529498D+01
 E2 =    -0.9685004120D+00 EUMP2 =    -0.30016514352131D+03
 (S**2,0)=  0.37500D+01           (S**2,1)=  0.37500D+01
 E(PUHF)=      -0.29919664311D+03        E(PMP2)=      -0.30016514352D+03
 Leave Link  804 at Sun Jan 15 00:05:55 2023, MaxMem=   671088640 cpu:              13.2 elap:               2.2
 (Enter /usr/site/hpc/x86_64/glibc-2.17/broadwell/gaussian/g16_a.03/pgi-16.5/g16/l913.exe)
 CIDS:  MDV=   671088640.
 Frozen-core window:  NFC=   4 NFV=   0.
 IFCWin=0 IBDFC=1 NFBD=     0     0 NFCmp=     0     0 NFFFC=     0     0
 Using original routines for 1st iteration.
 Using DD4UQ or CC4UQ for 2nd and later iterations.
 Keep R2 and R3 ints in memory in symmetry-blocked form, NReq=29781602.
 FoFCou: FMM=F IPFlag=           0 FMFlag=           0 FMFlg1=           0
         NFxFlg=           0 DoJE=F BraDBF=F KetDBF=F FulRan=T
         wScrn=  0.000000 ICntrl=       600 IOpCl=  0 I1Cent=           0 NGrid=           0
         NMat0=    1 NMatS0=   7260 NMatT0=    0 NMatD0=    1 NMtDS0=    0 NMtDT0=    0
 Petite list used in FoFCou.
 CIDS: In Core Option IDoMem=           1.
 CCSD(T)
 =======
 Iterations=  50 Convergence= 0.100D-06
 Produce multiple copies of IABC intergrals
 Iteration Nr.   1
 **********************
 DD1Dir will call FoFMem   1 times, MxPair=       454
 NAB=   154 NAA=    91 NBB=    55.
 DD1Dir will call FoFMem   1 times, MxPair=       454
 NAB=   154 NAA=    91 NBB=    55.
 MP4(R+Q)= -0.63345865D-02
 Maximum subspace dimension=  5
 A-vector RMS=  4.3328006D-04 Max=  6.2521899D-03 conv= 1.00D-05.
 RLE energy=       -0.9434334690
 E3=        0.31498898D-01        EROMP3=      -0.30013364462D+03
 E4(SDQ)=  -0.31358853D-01        ROMP4(SDQ)=  -0.30016500348D+03
 VARIATIONAL ENERGIES WITH THE FIRST-ORDER WAVEFUNCTION:
 DE(Corr)= -0.94273899     E(Corr)=     -300.13938210    
 NORM(A)=   0.11183267D+01
 Iteration Nr.   2
 **********************
 DD1Dir will call FoFMem   1 times, MxPair=       454
 NAB=   154 NAA=    91 NBB=    55.
 A-vector RMS=  5.9140963D-03 Max=  9.8753940D-02 conv= 1.00D-05.
 RLE energy=       -0.9329133219
 DE(Corr)= -0.91326477     E(CORR)=     -300.10990788     Delta= 2.95D-02
 NORM(A)=   0.11153748D+01
 Iteration Nr.   3
 **********************
 DD1Dir will call FoFMem   1 times, MxPair=       454
 NAB=   154 NAA=    91 NBB=    55.
 A-vector RMS=  4.1306316D-03 Max=  7.2601144D-02 conv= 1.00D-05.
 RLE energy=       -0.9514754687
 DE(Corr)= -0.92977145     E(CORR)=     -300.12641456     Delta=-1.65D-02
 NORM(A)=   0.11265924D+01
 Iteration Nr.   4
 **********************
 DD1Dir will call FoFMem   1 times, MxPair=       454
 NAB=   154 NAA=    91 NBB=    55.
 A-vector RMS=  3.6527549D-03 Max=  6.5438851D-02 conv= 1.00D-05.
 RLE energy=       -1.0377681789
 DE(Corr)= -0.93883184     E(CORR)=     -300.13547495     Delta=-9.06D-03
 NORM(A)=   0.14687885D+01
 Iteration Nr.   5
 **********************
 DD1Dir will call FoFMem   1 times, MxPair=       454
 NAB=   154 NAA=    91 NBB=    55.
 A-vector RMS=  7.9325485D-03 Max=  1.3682717D-01 conv= 1.00D-05.
 RLE energy=       -0.9936867023
 DE(Corr)=  -1.0611696     E(CORR)=     -300.25781268     Delta=-1.22D-01
 NORM(A)=   0.13135267D+01
 Iteration Nr.   6
 **********************
 DD1Dir will call FoFMem   1 times, MxPair=       454
 NAB=   154 NAA=    91 NBB=    55.
 A-vector RMS=  2.8586684D-03 Max=  4.6795262D-02 conv= 1.00D-05.
 RLE energy=       -0.9759366751
 DE(Corr)=  -1.0105889     E(CORR)=     -300.20723199     Delta= 5.06D-02
 NORM(A)=   0.12197872D+01
 Iteration Nr.   7
 **********************
 DD1Dir will call FoFMem   1 times, MxPair=       454
 NAB=   154 NAA=    91 NBB=    55.
 A-vector RMS=  1.7620358D-04 Max=  2.7056705D-03 conv= 1.00D-05.
 RLE energy=       -0.9782125538
 DE(Corr)= -0.97861214     E(CORR)=     -300.17525525     Delta= 3.20D-02
 NORM(A)=   0.12206779D+01
 Iteration Nr.   8
 **********************
 DD1Dir will call FoFMem   1 times, MxPair=       454
 NAB=   154 NAA=    91 NBB=    55.
 A-vector RMS=  1.7212022D-04 Max=  4.2660527D-03 conv= 1.00D-05.
 RLE energy=       -0.9779881983
 DE(Corr)= -0.97770231     E(CORR)=     -300.17434542     Delta= 9.10D-04
 NORM(A)=   0.12221061D+01
 Iteration Nr.   9
 **********************
 DD1Dir will call FoFMem   1 times, MxPair=       454
 NAB=   154 NAA=    91 NBB=    55.
 A-vector RMS=  5.1497303D-05 Max=  1.1674170D-03 conv= 1.00D-05.
 RLE energy=       -0.9779893407
 DE(Corr)= -0.97795016     E(CORR)=     -300.17459327     Delta=-2.48D-04
 NORM(A)=   0.12226965D+01
 Iteration Nr.  10
 **********************
 DD1Dir will call FoFMem   1 times, MxPair=       454
 NAB=   154 NAA=    91 NBB=    55.
 A-vector RMS=  2.4688195D-05 Max=  4.9180211D-04 conv= 1.00D-05.
 RLE energy=       -0.9779799929
 DE(Corr)= -0.97803872     E(CORR)=     -300.17468183     Delta=-8.86D-05
 NORM(A)=   0.12225785D+01
 Iteration Nr.  11
 **********************
 DD1Dir will call FoFMem   1 times, MxPair=       454
 NAB=   154 NAA=    91 NBB=    55.
 A-vector RMS=  7.4043355D-06 Max=  1.0446908D-04 conv= 1.00D-05.
 RLE energy=       -0.9779986287
 DE(Corr)= -0.97798510     E(CORR)=     -300.17462821     Delta= 5.36D-05
 NORM(A)=   0.12226376D+01
 Iteration Nr.  12
 **********************
 DD1Dir will call FoFMem   1 times, MxPair=       454
 NAB=   154 NAA=    91 NBB=    55.
 A-vector RMS=  7.2329022D-06 Max=  1.5186241D-04 conv= 1.00D-05.
 RLE energy=       -0.9779619645
 DE(Corr)= -0.97799152     E(CORR)=     -300.17463462     Delta=-6.42D-06
 NORM(A)=   0.12225036D+01
 Iteration Nr.  13
 **********************
 DD1Dir will call FoFMem   1 times, MxPair=       454
 NAB=   154 NAA=    91 NBB=    55.
 A-vector RMS=  2.3484269D-06 Max=  3.5592040D-05 conv= 1.00D-05.
 RLE energy=       -0.9779711208
 DE(Corr)= -0.97797418     E(CORR)=     -300.17461729     Delta= 1.73D-05
 NORM(A)=   0.12224712D+01
 Iteration Nr.  14
 **********************
 DD1Dir will call FoFMem   1 times, MxPair=       454
 NAB=   154 NAA=    91 NBB=    55.
 A-vector RMS=  1.2158875D-06 Max=  2.0379439D-05 conv= 1.00D-05.
 RLE energy=       -0.9779653574
 DE(Corr)= -0.97796571     E(CORR)=     -300.17460882     Delta= 8.47D-06
 NORM(A)=   0.12224664D+01
 Iteration Nr.  15
 **********************
 DD1Dir will call FoFMem   1 times, MxPair=       454
 NAB=   154 NAA=    91 NBB=    55.
 A-vector RMS=  7.9671580D-07 Max=  1.4561235D-05 conv= 1.00D-05.
 RLE energy=       -0.9779647652
 DE(Corr)= -0.97796623     E(CORR)=     -300.17460934     Delta=-5.20D-07
 NORM(A)=   0.12224621D+01
 Iteration Nr.  16
 **********************
 DD1Dir will call FoFMem   1 times, MxPair=       454
 NAB=   154 NAA=    91 NBB=    55.
 A-vector RMS=  4.2558542D-07 Max=  1.0408591D-05 conv= 1.00D-05.
 RLE energy=       -0.9779659468
 DE(Corr)= -0.97796566     E(CORR)=     -300.17460877     Delta= 5.76D-07
 NORM(A)=   0.12224646D+01
 Iteration Nr.  17
 **********************
 DD1Dir will call FoFMem   1 times, MxPair=       454
 NAB=   154 NAA=    91 NBB=    55.
 A-vector RMS=  1.7942950D-07 Max=  4.8408577D-06 conv= 1.00D-05.
 RLE energy=       -0.9779663238
 DE(Corr)= -0.97796595     E(CORR)=     -300.17460906     Delta=-2.96D-07
 NORM(A)=   0.12224672D+01
 Iteration Nr.  18
 **********************
 DD1Dir will call FoFMem   1 times, MxPair=       454
 NAB=   154 NAA=    91 NBB=    55.
 A-vector RMS=  9.7728671D-08 Max=  1.5303971D-06 conv= 1.00D-05.
 RLE energy=       -0.9779665815
 DE(Corr)= -0.97796645     E(CORR)=     -300.17460956     Delta=-4.98D-07
 NORM(A)=   0.12224681D+01
 Iteration Nr.  19
 **********************
 DD1Dir will call FoFMem   1 times, MxPair=       454
 NAB=   154 NAA=    91 NBB=    55.
 A-vector RMS=  4.4762217D-08 Max=  6.7850724D-07 conv= 1.00D-05.
 RLE energy=       -0.9779667401
 DE(Corr)= -0.97796657     E(CORR)=     -300.17460968     Delta=-1.21D-07
 NORM(A)=   0.12224691D+01
 Iteration Nr.  20
 **********************
 DD1Dir will call FoFMem   1 times, MxPair=       454
 NAB=   154 NAA=    91 NBB=    55.
 A-vector RMS=  2.7235444D-08 Max=  3.8685387D-07 conv= 1.00D-05.
 RLE energy=       -0.9779667707
 DE(Corr)= -0.97796674     E(CORR)=     -300.17460985     Delta=-1.66D-07
 NORM(A)=   0.12224693D+01
 Iteration Nr.  21
 **********************
 DD1Dir will call FoFMem   1 times, MxPair=       454
 NAB=   154 NAA=    91 NBB=    55.
 A-vector RMS=  1.0679988D-08 Max=  1.7907389D-07 conv= 1.00D-05.
 RLE energy=       -0.9779667620
 DE(Corr)= -0.97796676     E(CORR)=     -300.17460987     Delta=-2.54D-08
 NORM(A)=   0.12224693D+01
 CI/CC converged in   21 iterations to DelEn=-2.54D-08 Conv= 1.00D-07 ErrA1= 1.07D-08 Conv= 1.00D-05
 Wavefunction amplitudes converged. E(Corr)=     -300.17460987    
 Dominant configurations:
 ***********************
 Spin Case        I    J    A    B          Value
    BB           14        18            0.295190D+00
    BB           11        16            0.198406D+00
    BB           12        17            0.259543D+00
 Largest amplitude= 2.95D-01
 Time for triples=      705.75 seconds.
 T4(CCSD)= -0.55842737D-01
 T5(CCSD)=  0.79783120D-02
 CCSD(T)= -0.30022247430D+03
 Discarding MO integrals.
 Leave Link  913 at Sun Jan 15 00:08:21 2023, MaxMem=   671088640 cpu:             866.1 elap:             146.6
 (Enter /usr/site/hpc/x86_64/glibc-2.17/broadwell/gaussian/g16_a.03/pgi-16.5/g16/l601.exe)
 Copying SCF densities to generalized density rwf, IOpCl= 0 IROHF=1.

 **********************************************************************

            Population analysis using the SCF density.

 **********************************************************************

 Orbital symmetries:
       Occupied  (SGU) (SGG) (SGG) (SGU) (SGG) (SGU) (SGG) (SGU)
                 (SGG) (?A) (?B) (?A) (SGU) (?B) (?A) (?B) (?A)
                 (?B)
       Virtual   (SGG) (SGU) (SGU) (SGG) (PIU) (PIU) (PIG) (PIG)
                 (PIU) (PIU) (SGU) (SGG) (PIG) (PIG) (SGG) (?C)
                 (PIU) (PIU) (?D) (?D) (?C) (?C) (?D) (PIG) (PIG)
                 (?E) (DLTG) (DLTG) (?E) (?E) (SGG) (PIU) (PIU)
                 (SGU) (SGG) (PIG) (PIG) (SGU) (PIU) (PIU) (PIG)
                 (PIG) (SGG) (PIU) (PIU) (PIG) (PIG) (SGU) (?F)
                 (PIU) (PIU) (?G) (?G) (?G) (?F) (?F) (PIG) (PIG)
                 (SGG) (PHIU) (PHIU) (PHIG) (PHIG) (PHIU) (PHIU)
                 (PHIG) (PHIG) (?H) (DLTG) (DLTG) (?H) (?H) (PIU)
                 (PIU) (?H) (?H) (PIG) (DLTU) (DLTU) (PIG) (?H)
                 (PIU) (?H) (?H) (PIU) (DLTU) (DLTU) (SGU) (PIG)
                 (PIG) (SGU) (SGG) (SGG) (PIU) (PIU) (PIG) (PIG)
                 (SGU) (SGG) (SGU) (SGG) (SGU)
 Unable to determine electronic state:  an orbital has unidentified symmetry.
 Alpha  occ. eigenvalues --  -20.44112 -20.44112 -20.41251 -20.41249  -1.29353
 Alpha  occ. eigenvalues --   -1.27950  -0.95275  -0.88305  -0.48867  -0.47760
 Alpha  occ. eigenvalues --   -0.46426  -0.45996  -0.44132  -0.34225  -0.27807
 Alpha  occ. eigenvalues --   -0.25440  -0.23107  -0.21809
 Alpha virt. eigenvalues --    0.52090   0.63132   0.90490   0.91886   0.92950
 Alpha virt. eigenvalues --    0.93877   0.94032   0.96827   0.99793   1.01278
 Alpha virt. eigenvalues --    1.13577   1.14195   1.19037   1.19074   1.23902
 Alpha virt. eigenvalues --    1.67618   1.68092   1.68689   1.75286   1.75380
 Alpha virt. eigenvalues --    1.77993   1.78016   1.83662   1.87098   1.88794
 Alpha virt. eigenvalues --    2.02612   2.06766   2.06861   2.12120   2.12130
 Alpha virt. eigenvalues --    2.25606   2.50294   2.51861   2.64303   2.70849
 Alpha virt. eigenvalues --    2.77492   2.78537   3.31547   4.12092   4.14659
 Alpha virt. eigenvalues --    4.15838   4.18467   4.26578   4.37597   4.39051
 Alpha virt. eigenvalues --    4.45667   4.47191   4.59243   5.24076   5.25658
 Alpha virt. eigenvalues --    5.27110   5.29428   5.39147   5.39419   5.41568
 Alpha virt. eigenvalues --    5.41714   5.43901   5.45292   5.52216   5.68623
 Alpha virt. eigenvalues --    5.68625   5.68710   5.68711   5.81659   5.81660
 Alpha virt. eigenvalues --    5.81854   5.81854   5.89723   6.13808   6.13849
 Alpha virt. eigenvalues --    6.16232   6.16322   6.67953   6.69184   6.80467
 Alpha virt. eigenvalues --    6.80694   6.82569   6.82676   6.82828   6.85643
 Alpha virt. eigenvalues --    6.93128   6.98576   6.98850   6.98852   7.00898
 Alpha virt. eigenvalues --    7.01648   7.01694   7.13852   7.14970   7.15819
 Alpha virt. eigenvalues --    7.38644   7.47946   7.60825   7.66144   7.67638
 Alpha virt. eigenvalues --    7.68915   7.70067   7.94976   8.45369   9.11651
 Alpha virt. eigenvalues --   10.67949  10.83321
          Condensed to atoms (all electrons):
               1          2          3          4
     1  O    8.250291   0.037379   0.003171  -0.054089
     2  O    0.037379   8.222867  -0.000169   0.003171
     3  O    0.003171  -0.000169   8.222867   0.037379
     4  O   -0.054089   0.003171   0.037379   8.250291
          Atomic-Atomic Spin Densities.
               1          2          3          4
     1  O    0.803486  -0.155144   0.001069  -0.041959
     2  O   -0.155144   1.046631  -0.000008   0.001069
     3  O    0.001069  -0.000008   1.046631  -0.155144
     4  O   -0.041959   0.001069  -0.155144   0.803486
 Mulliken charges and spin densities:
               1          2
     1  O   -0.236752   0.607452
     2  O   -0.263248   0.892548
     3  O   -0.263248   0.892548
     4  O   -0.236752   0.607452
 Sum of Mulliken charges =  -1.00000   3.00000
 Mulliken charges and spin densities with hydrogens summed into heavy atoms:
               1          2
     1  O   -0.236752   0.607452
     2  O   -0.263248   0.892548
     3  O   -0.263248   0.892548
     4  O   -0.236752   0.607452
 Electronic spatial extent (au):  <R**2>=            416.0119
 Charge=             -1.0000 electrons
 Dipole moment (field-independent basis, Debye):
    X=             -0.0000    Y=              0.0000    Z=              0.0000  Tot=              0.0000
 Quadrupole moment (field-independent basis, Debye-Ang):
   XX=            -21.8172   YY=            -23.0755   ZZ=            -38.7537
   XY=              0.0000   XZ=              0.0000   YZ=              0.0000
 Traceless Quadrupole moment (field-independent basis, Debye-Ang):
   XX=              6.0650   YY=              4.8066   ZZ=            -10.8716
   XY=              0.0000   XZ=              0.0000   YZ=              0.0000
 Octapole moment (field-independent basis, Debye-Ang**2):
  XXX=             -0.0000  YYY=              0.0000  ZZZ=             -0.0000  XYY=             -0.0000
  XXY=             -0.0000  XXZ=             -0.0000  XZZ=             -0.0000  YZZ=              0.0000
  YYZ=             -0.0000  XYZ=             -0.0000
 Hexadecapole moment (field-independent basis, Debye-Ang**3):
 XXXX=            -15.9542 YYYY=            -17.6154 ZZZZ=           -525.9313 XXXY=              0.0000
 XXXZ=              0.0000 YYYX=              0.0000 YYYZ=              0.0000 ZZZX=              0.0000
 ZZZY=              0.0000 XXYY=             -5.5948 XXZZ=            -70.1703 YYZZ=            -79.1510
 XXYZ=              0.0000 YYXZ=              0.0000 ZZXY=             -0.0000
 N-N= 9.614998747263D+01 E-N=-9.123788989868D+02  KE= 2.990062093583D+02
 Symmetry AG   KE= 1.331228139917D+02
 Symmetry B1G  KE= 1.085284484325D-33
 Symmetry B2G  KE= 7.390513859419D+00
 Symmetry B3G  KE= 7.376089656476D+00
 Symmetry AU   KE= 1.101713022163D-33
 Symmetry B1U  KE= 1.349217072290D+02
 Symmetry B2U  KE= 9.266670176957D+00
 Symmetry B3U  KE= 6.928414444682D+00
 Symmetry AG   SP= 8.038916269440D-16
 Symmetry B1G  SP= 5.806344113845D-35
 Symmetry B2G  SP= 1.000000000000D+00
 Symmetry B3G  SP= 1.000000000000D+00
 Symmetry AU   SP= 5.699479884442D-35
 Symmetry B1U  SP= 8.434997788204D-16
 Symmetry B2U  SP= 3.274589503520D-16
 Symmetry B3U  SP= 1.000000000000D+00
                          Isotropic Fermi Contact Couplings
        Atom                 a.u.       MegaHertz       Gauss      10(-4) cm-1
     1  O(17)              0.00000      -0.00000      -0.00000      -0.00000
     2  O(17)             -0.00000       0.00000       0.00000       0.00000
     3  O(17)             -0.00000       0.00000       0.00000       0.00000
     4  O(17)              0.00000      -0.00000      -0.00000      -0.00000
 --------------------------------------------------------
       Center         ----  Spin Dipole Couplings  ----
                      3XX-RR        3YY-RR        3ZZ-RR
 --------------------------------------------------------
     1   Atom       -0.067669      1.321086     -1.253417
     2   Atom        3.176685     -1.351490     -1.825195
     3   Atom        3.176685     -1.351490     -1.825195
     4   Atom       -0.067669      1.321086     -1.253417
 --------------------------------------------------------
                        XY            XZ            YZ
 --------------------------------------------------------
     1   Atom        0.000000     -0.000000      0.000000
     2   Atom        0.000000     -0.000000      0.000000
     3   Atom        0.000000     -0.000000      0.000000
     4   Atom        0.000000     -0.000000      0.000000
 --------------------------------------------------------


 ---------------------------------------------------------------------------------
              Anisotropic Spin Dipole Couplings in Principal Axis System
 ---------------------------------------------------------------------------------

       Atom             a.u.   MegaHertz   Gauss  10(-4) cm-1        Axes

              Baa    -1.2534    90.696    32.363    30.253  0.0000  0.0000  1.0000
     1 O(17)  Bbb    -0.0677     4.896     1.747     1.633  1.0000  0.0000  0.0000
              Bcc     1.3211   -95.593   -34.110   -31.886 -0.0000  1.0000 -0.0000
 
              Baa    -1.8252   132.070    47.126    44.054  0.0000  0.0000  1.0000
     2 O(17)  Bbb    -1.3515    97.793    34.895    32.620  0.0000  1.0000  0.0000
              Bcc     3.1767  -229.863   -82.021   -76.674  1.0000  0.0000  0.0000
 
              Baa    -1.8252   132.070    47.126    44.054  0.0000  0.0000  1.0000
     3 O(17)  Bbb    -1.3515    97.793    34.895    32.620  0.0000  1.0000  0.0000
              Bcc     3.1767  -229.863   -82.021   -76.674  1.0000  0.0000  0.0000
 
              Baa    -1.2534    90.696    32.363    30.253  0.0000  0.0000  1.0000
     4 O(17)  Bbb    -0.0677     4.896     1.747     1.633  1.0000  0.0000  0.0000
              Bcc     1.3211   -95.593   -34.110   -31.886  0.0000  1.0000  0.0000
 

 ---------------------------------------------------------------------------------

 No NMR shielding tensors so no spin-rotation constants.
 Leave Link  601 at Sun Jan 15 00:08:22 2023, MaxMem=   671088640 cpu:               1.4 elap:               0.3
 (Enter /usr/site/hpc/x86_64/glibc-2.17/broadwell/gaussian/g16_a.03/pgi-16.5/g16/l9999.exe)
 1\1\GINC-N050\SP\ROCCSD(T)-FC\CC-pVTZ\O4(1-,4)\C7441284\15-Jan-2023\0\
 \#p ROCCSD(T)/cc-pVTZ Guess=Read SCF=(VeryTight,CDIIS,VShift=10)\\O2_O
 2_22\\-1,4\O,0,0.67619,0.,0.\O,0,-0.67619,0.,0.\O,0,3.92521,0.,0.\O,0,
 2.57283,0.,0.\\Version=ES64L-G16RevA.03\HF=-299.1966431\MP2=-300.16514
 35\MP3=-300.1336446\PUHF=-299.1966431\PMP2-0=-300.1651435\MP4SDQ=-300.
 1650035\CCSD=-300.1746099\CCSD(T)=-300.2224743\RMSD=5.597e-09\PG=D*H [
 C*(O1O1.O1O1)]\\@


 "THE ACADEMIC HIERARCHY"


 THE PRESIDENT:
   LEAPS TALL BUILDINGS IN A SINGLE BOUND,
     IS MORE POWERFUL THAN A LOCOMOTIVE,
       IS FASTER THAN A SPEEDING BULLET,
         WALKS ON WATER,
           GIVES POLICY TO GOD.

 THE VICE PRESIDENT FOR ACADEMIC AFFAIRS:
   LEAPS SHORT BUILDINGS IN A SINGLE BOUND,
     IS MORE POWERFUL THAN A SWITCH ENGINE,
       IS JUST AS FAST AS A SPEEDING BULLET,
         WALKS ON WATER IF SEA IS CALM,
           TALKS WITH GOD.

 PROFESSOR:
   LEAPS SHORT BUILDINGS WITH A RUNNING START AND FAVORABLE WINDS,
     IS ALMOST AS POWERFUL AS A SWITCH ENGINE,
       CAN FIRE A SPEEDING BULLET,
         WALKS ON WATER IN AN INDOOR SWIMMING POOL,
          TALKS WITH GOD IF SPECIAL REQUEST IS APPROVED.

 ASSOCIATE PROFESSOR:
   BARELY CLEARS A QUONSET HUT,
     LOSES TUG OF WAR WITH LOCOMOTIVE,
       MISFIRES FREQUENTLY,
         SWIMS WELL,
           IS OCCASIONALLY ADDRESSED BY GOD.

 ASSISTANT PROFESSOR:
   MAKES HIGH MARKS ON WALLS WHEN TRYING TO LEAP TALL BUILDINGS,
     IS RUN OVER BY LOCOMOTIVES,
       CAN SOMETIMES HANDLE A GUN WITHOUT INFLICTING SELF INJURY,
         DOG PADDLES,
           TALKS TO ANIMALS.

 GRADUATE STUDENT:
   RUNS INTO BUILDINGS,
     RECOGNIZES LOCOMOTIVES TWO OUT OF THREE TIMES,
       IS NOT ISSUED AMMUNITION,
         CAN STAY AFLOAT WITH A LIFE JACKET,
           TALKS TO WALLS.

 UNDERGRADUATE AND WORK STUDY STUDENT:
   FALLS OVER DOORSTEP WHEN TRYING TO ENTER BUILDINGS,
     SAYS, "LOOK AT THE CHOO-CHOO,"
       WETS HIMSELF WITH A WATER PISTOL,
        PLAYS IN MUD PUDDLES,
          MUMBLES TO HIMSELF.

 DEPARTMENT SECRETARY:
   LIFTS TALL BUILDINGS AND WALKS UNDER THEM,
     KICKS LOCOMOTIVES OFF THE TRACKS,
       CATCHES SPEEDING BULLETS IN HER TEETH AND EATS THEM,
         FREEZES WATER WITH A SINGLE GLANCE,
           IS GOD.
 Job cpu time:       0 days  0 hours 14 minutes 51.9 seconds.
 Elapsed time:       0 days  0 hours  2 minutes 31.2 seconds.
 File lengths (MBytes):  RWF=    564 Int=      0 D2E=      0 Chk=      8 Scr=      8
 Normal termination of Gaussian 16 at Sun Jan 15 00:08:22 2023.
