 Entering Gaussian System, Link 0=g16
 Input=Be.com
 Output=Be.log
 Initial command:
 /usr/site/hpc/x86_64/glibc-2.17/broadwell/gaussian/g16_a.03/pgi-16.5/g16/l1.exe "/gpfs/gpfs1/scratch/c7441284/ForceFieldModel/data_base/Gau-3904690.inp" -scrdir="/gpfs/gpfs1/scratch/c7441284/ForceFieldModel/data_base/"
 Entering Link 1 = /usr/site/hpc/x86_64/glibc-2.17/broadwell/gaussian/g16_a.03/pgi-16.5/g16/l1.exe PID=   3904691.
  
 Copyright (c) 1988,1990,1992,1993,1995,1998,2003,2009,2016,
            Gaussian, Inc.  All Rights Reserved.
  
 This is part of the Gaussian(R) 16 program.  It is based on
 the Gaussian(R) 09 system (copyright 2009, Gaussian, Inc.),
 the Gaussian(R) 03 system (copyright 2003, Gaussian, Inc.),
 the Gaussian(R) 98 system (copyright 1998, Gaussian, Inc.),
 the Gaussian(R) 94 system (copyright 1995, Gaussian, Inc.),
 the Gaussian 92(TM) system (copyright 1992, Gaussian, Inc.),
 the Gaussian 90(TM) system (copyright 1990, Gaussian, Inc.),
 the Gaussian 88(TM) system (copyright 1988, Gaussian, Inc.),
 the Gaussian 86(TM) system (copyright 1986, Carnegie Mellon
 University), and the Gaussian 82(TM) system (copyright 1983,
 Carnegie Mellon University). Gaussian is a federally registered
 trademark of Gaussian, Inc.
  
 This software contains proprietary and confidential information,
 including trade secrets, belonging to Gaussian, Inc.
  
 This software is provided under written license and may be
 used, copied, transmitted, or stored only in accord with that
 written license.
  
 The following legend is applicable only to US Government
 contracts under FAR:
  
                    RESTRICTED RIGHTS LEGEND
  
 Use, reproduction and disclosure by the US Government is
 subject to restrictions as set forth in subparagraphs (a)
 and (c) of the Commercial Computer Software - Restricted
 Rights clause in FAR 52.227-19.
  
 Gaussian, Inc.
 340 Quinnipiac St., Bldg. 40, Wallingford CT 06492
  
  
 ---------------------------------------------------------------
 Warning -- This program may not be used in any manner that
 competes with the business of Gaussian, Inc. or will provide
 assistance to any competitor of Gaussian, Inc.  The licensee
 of this program is prohibited from giving any competitor of
 Gaussian, Inc. access to this program.  By using this program,
 the user acknowledges that Gaussian, Inc. is engaged in the
 business of creating and licensing software in the field of
 computational chemistry and represents and warrants to the
 licensee that it is not a competitor of Gaussian, Inc. and that
 it will not use this program in any manner prohibited above.
 ---------------------------------------------------------------
  

 Cite this work as:
 Gaussian 16, Revision A.03,
 M. J. Frisch, G. W. Trucks, H. B. Schlegel, G. E. Scuseria, 
 M. A. Robb, J. R. Cheeseman, G. Scalmani, V. Barone, 
 G. A. Petersson, H. Nakatsuji, X. Li, M. Caricato, A. V. Marenich, 
 J. Bloino, B. G. Janesko, R. Gomperts, B. Mennucci, H. P. Hratchian, 
 J. V. Ortiz, A. F. Izmaylov, J. L. Sonnenberg, D. Williams-Young, 
 F. Ding, F. Lipparini, F. Egidi, J. Goings, B. Peng, A. Petrone, 
 T. Henderson, D. Ranasinghe, V. G. Zakrzewski, J. Gao, N. Rega, 
 G. Zheng, W. Liang, M. Hada, M. Ehara, K. Toyota, R. Fukuda, 
 J. Hasegawa, M. Ishida, T. Nakajima, Y. Honda, O. Kitao, H. Nakai, 
 T. Vreven, K. Throssell, J. A. Montgomery, Jr., J. E. Peralta, 
 F. Ogliaro, M. J. Bearpark, J. J. Heyd, E. N. Brothers, K. N. Kudin, 
 V. N. Staroverov, T. A. Keith, R. Kobayashi, J. Normand, 
 K. Raghavachari, A. P. Rendell, J. C. Burant, S. S. Iyengar, 
 J. Tomasi, M. Cossi, J. M. Millam, M. Klene, C. Adamo, R. Cammi, 
 J. W. Ochterski, R. L. Martin, K. Morokuma, O. Farkas, 
 J. B. Foresman, and D. J. Fox, Gaussian, Inc., Wallingford CT, 2016.
 
 ******************************************
 Gaussian 16:  ES64L-G16RevA.03 25-Dec-2016
                14-Aug-2022 
 ******************************************
 %NProcShared=4
 Will use up to    4 processors via shared memory.
 %Mem=1GB
 %Chk=Be.chk
 ----------------------
 # MP2/CEP-31G Pop=Full
 ----------------------
 1/38=1,172=1/1;
 2/12=2,17=6,18=5,40=1/2;
 3/5=9,6=1,11=9,25=1,30=1/1,2,3;
 4//1;
 5/5=2,38=5/2;
 8/10=1/1;
 9/16=-3/6;
 6/7=3/1;
 99/5=1,9=1/99;
 ---------
 Beryllium
 ---------
 Symbolic Z-matrix:
 Charge =  0 Multiplicity = 1
 Be                    0.        0.        0. 
 
                          Input orientation:                          
 ---------------------------------------------------------------------
 Center     Atomic      Atomic             Coordinates (Angstroms)
 Number     Number       Type             X           Y           Z
 ---------------------------------------------------------------------
      1          4           0        0.000000    0.000000    0.000000
 ---------------------------------------------------------------------
 Stoichiometry    Be
 Framework group  OH[O(Be)]
 Deg. of freedom     0
 Full point group                 OH      NOp  48
 Largest Abelian subgroup         D2H     NOp   8
 Largest concise Abelian subgroup C1      NOp   1
                         Standard orientation:                         
 ---------------------------------------------------------------------
 Center     Atomic      Atomic             Coordinates (Angstroms)
 Number     Number       Type             X           Y           Z
 ---------------------------------------------------------------------
      1          4           0        0.000000    0.000000    0.000000
 ---------------------------------------------------------------------
 Standard basis: CEP-31G (6D, 10F)
 There are     2 symmetry adapted cartesian basis functions of AG  symmetry.
 There are     0 symmetry adapted cartesian basis functions of B1G symmetry.
 There are     0 symmetry adapted cartesian basis functions of B2G symmetry.
 There are     0 symmetry adapted cartesian basis functions of B3G symmetry.
 There are     0 symmetry adapted cartesian basis functions of AU  symmetry.
 There are     2 symmetry adapted cartesian basis functions of B1U symmetry.
 There are     2 symmetry adapted cartesian basis functions of B2U symmetry.
 There are     2 symmetry adapted cartesian basis functions of B3U symmetry.
 There are     2 symmetry adapted basis functions of AG  symmetry.
 There are     0 symmetry adapted basis functions of B1G symmetry.
 There are     0 symmetry adapted basis functions of B2G symmetry.
 There are     0 symmetry adapted basis functions of B3G symmetry.
 There are     0 symmetry adapted basis functions of AU  symmetry.
 There are     2 symmetry adapted basis functions of B1U symmetry.
 There are     2 symmetry adapted basis functions of B2U symmetry.
 There are     2 symmetry adapted basis functions of B3U symmetry.
     8 basis functions,    16 primitive gaussians,     8 cartesian basis functions
     1 alpha electrons        1 beta electrons
       nuclear repulsion energy         0.0000000000 Hartrees.
 NAtoms=    1 NActive=    1 NUniq=    1 SFac= 1.00D+00 NAtFMM=   60 NAOKFM=F Big=F
 Integral buffers will be    131072 words long.
 Raffenetti 1 integral format.
 Two-electron integral symmetry is turned on.
 One-electron integrals computed using PRISM.
  48 Symmetry operations used in ECPInt.
 ECPInt:  NShTT=       3 NPrTT=      13 LenC2=       4 LenP2D=      13.
 LDataN:  DoStor=T MaxTD1= 2 Len=   12
 NBasis=     8 RedAO= T EigKep=  1.80D-01  NBF=     2     0     0     0     0     2     2     2
 NBsUse=     8 1.00D-06 EigRej= -1.00D+00 NBFU=     2     0     0     0     0     2     2     2
 ExpMin= 4.40D-02 ExpMax= 1.45D+00 ExpMxC= 1.45D+00 IAcc=3 IRadAn=         5 AccDes= 0.00D+00
 Harris functional with IExCor=  205 and IRadAn=       5 diagonalized for initial guess.
 HarFok:  IExCor=  205 AccDes= 0.00D+00 IRadAn=         5 IDoV= 1 UseB2=F ITyADJ=14
 ICtDFT=  3500011 ScaDFX=  1.000000  1.000000  1.000000  1.000000
 FoFCou: FMM=F IPFlag=           0 FMFlag=      100000 FMFlg1=           0
         NFxFlg=           0 DoJE=T BraDBF=F KetDBF=T FulRan=T
         wScrn=  0.000000 ICntrl=       500 IOpCl=  0 I1Cent=   200000004 NGrid=           0
         NMat0=    1 NMatS0=      1 NMatT0=    0 NMatD0=    1 NMtDS0=    0 NMtDT0=    0
 Petite list used in FoFCou.
 Initial guess orbital symmetries:
       Occupied  (A1G)
       Virtual   (T1U) (T1U) (T1U) (T1U) (T1U) (T1U) (A1G)
 The electronic state of the initial guess is 1-A1G.
 Keep R1 ints in memory in symmetry-blocked form, NReq=802623.
 Requested convergence on RMS density matrix=1.00D-08 within 128 cycles.
 Requested convergence on MAX density matrix=1.00D-06.
 Requested convergence on             energy=1.00D-06.
 No special actions if energy rises.
 SCF Done:  E(RHF) = -0.960190852469     A.U. after    4 cycles
            NFock=  4  Conv=0.78D-09     -V/T= 3.7958
 Range of M.O.s used for correlation:     1     8
 NBasis=     8 NAE=     1 NBE=     1 NFC=     0 NFV=     0
 NROrb=      8 NOA=     1 NOB=     1 NVA=     7 NVB=     7
 Fully in-core method, ICMem=     6004312.
 JobTyp=1 Pass  1 fully in-core, NPsUse=  4.
 Spin components of T(2) and E(2):
     alpha-alpha T2 =       0.0000000000D+00 E2=      0.0000000000D+00
     alpha-beta  T2 =       0.2638260636D-01 E2=     -0.2285418427D-01
     beta-beta   T2 =       0.0000000000D+00 E2=      0.0000000000D+00
 ANorm=    0.1013105427D+01
 E2 =    -0.2285418427D-01 EUMP2 =    -0.98304503674330D+00

 **********************************************************************

            Population analysis using the SCF density.

 **********************************************************************

 Orbital symmetries:
       Occupied  (A1G)
       Virtual   (T1U) (T1U) (T1U) (T1U) (T1U) (T1U) (A1G)
 The electronic state is 1-A1G.
 Alpha  occ. eigenvalues --   -0.30899
 Alpha virt. eigenvalues --    0.04700   0.04700   0.04700   0.25298   0.25298
 Alpha virt. eigenvalues --    0.25298   0.42248
     Molecular Orbital Coefficients:
                           1         2         3         4         5
                       (A1G)--O  (T1U)--V  (T1U)--V  (T1U)--V  (T1U)--V
     Eigenvalues --    -0.30899   0.04700   0.04700   0.04700   0.25298
   1 1   Be 1S          0.71140   0.00000   0.00000   0.00000   0.00000
   2        1PX         0.00000   0.00000   0.00000   0.34306   0.00000
   3        1PY         0.00000   0.00000   0.34306   0.00000   1.19824
   4        1PZ         0.00000   0.34306   0.00000   0.00000   0.00000
   5        2S          0.32990   0.00000   0.00000   0.00000   0.00000
   6        2PX         0.00000   0.00000   0.00000   0.75660   0.00000
   7        2PY         0.00000   0.00000   0.75660   0.00000  -0.99047
   8        2PZ         0.00000   0.75660   0.00000   0.00000   0.00000
                           6         7         8
                       (T1U)--V  (T1U)--V  (A1G)--V
     Eigenvalues --     0.25298   0.25298   0.42248
   1 1   Be 1S          0.00000   0.00000  -1.59759
   2        1PX         1.19824   0.00000   0.00000
   3        1PY         0.00000   0.00000   0.00000
   4        1PZ         0.00000   1.19824   0.00000
   5        2S          0.00000   0.00000   1.71743
   6        2PX        -0.99047   0.00000   0.00000
   7        2PY         0.00000   0.00000   0.00000
   8        2PZ         0.00000  -0.99047   0.00000
     Density Matrix:
                           1         2         3         4         5
   1 1   Be 1S          1.01219
   2        1PX         0.00000   0.00000
   3        1PY         0.00000   0.00000   0.00000
   4        1PZ         0.00000   0.00000   0.00000   0.00000
   5        2S          0.46938   0.00000   0.00000   0.00000   0.21767
   6        2PX         0.00000   0.00000   0.00000   0.00000   0.00000
   7        2PY         0.00000   0.00000   0.00000   0.00000   0.00000
   8        2PZ         0.00000   0.00000   0.00000   0.00000   0.00000
                           6         7         8
   6        2PX         0.00000
   7        2PY         0.00000   0.00000
   8        2PZ         0.00000   0.00000   0.00000
    Full Mulliken population analysis:
                           1         2         3         4         5
   1 1   Be 1S          1.01219
   2        1PX         0.00000   0.00000
   3        1PY         0.00000   0.00000   0.00000
   4        1PZ         0.00000   0.00000   0.00000   0.00000
   5        2S          0.38507   0.00000   0.00000   0.00000   0.21767
   6        2PX         0.00000   0.00000   0.00000   0.00000   0.00000
   7        2PY         0.00000   0.00000   0.00000   0.00000   0.00000
   8        2PZ         0.00000   0.00000   0.00000   0.00000   0.00000
                           6         7         8
   6        2PX         0.00000
   7        2PY         0.00000   0.00000
   8        2PZ         0.00000   0.00000   0.00000
     Gross orbital populations:
                           1
   1 1   Be 1S          1.39726
   2        1PX         0.00000
   3        1PY         0.00000
   4        1PZ         0.00000
   5        2S          0.60274
   6        2PX         0.00000
   7        2PY         0.00000
   8        2PZ         0.00000
          Condensed to atoms (all electrons):
               1
     1  Be   2.000000
 Mulliken charges:
               1
     1  Be  -0.000000
 Sum of Mulliken charges =  -0.00000
 Mulliken charges with hydrogens summed into heavy atoms:
               1
     1  Be  -0.000000
 Electronic spatial extent (au):  <R**2>=             16.8821
 Charge=             -0.0000 electrons
 Dipole moment (field-independent basis, Debye):
    X=              0.0000    Y=              0.0000    Z=              0.0000  Tot=              0.0000
 Quadrupole moment (field-independent basis, Debye-Ang):
   XX=             -7.5690   YY=             -7.5690   ZZ=             -7.5690
   XY=              0.0000   XZ=              0.0000   YZ=              0.0000
 Traceless Quadrupole moment (field-independent basis, Debye-Ang):
   XX=              0.0000   YY=              0.0000   ZZ=              0.0000
   XY=              0.0000   XZ=              0.0000   YZ=              0.0000
 Octapole moment (field-independent basis, Debye-Ang**2):
  XXX=              0.0000  YYY=              0.0000  ZZZ=              0.0000  XYY=              0.0000
  XXY=              0.0000  XXZ=              0.0000  XZZ=              0.0000  YZZ=              0.0000
  YYZ=              0.0000  XYZ=              0.0000
 Hexadecapole moment (field-independent basis, Debye-Ang**3):
 XXXX=            -20.3023 YYYY=            -20.3023 ZZZZ=            -20.3023 XXXY=              0.0000
 XXXZ=              0.0000 YYYX=              0.0000 YYYZ=              0.0000 ZZZX=              0.0000
 ZZZY=              0.0000 XXYY=             -6.7674 XXZZ=             -6.7674 YYZZ=             -6.7674
 XXYZ=              0.0000 YYXZ=              0.0000 ZZXY=              0.0000
 N-N= 0.000000000000D+00 E-N=-1.645836319688D+00  KE= 3.434372651583D-01
 Symmetry AG   KE= 3.434372651583D-01
 Symmetry B1G  KE= 0.000000000000D+00
 Symmetry B2G  KE= 0.000000000000D+00
 Symmetry B3G  KE= 0.000000000000D+00
 Symmetry AU   KE= 0.000000000000D+00
 Symmetry B1U  KE= 0.000000000000D+00
 Symmetry B2U  KE= 0.000000000000D+00
 Symmetry B3U  KE= 0.000000000000D+00
 Orbital energies and kinetic energies (alpha):
                                 1                 2
   1         (A1G)--O         -0.308991          0.171719
   2         (T1U)--V          0.046999          0.179111
   3         (T1U)--V          0.046999          0.179111
   4         (T1U)--V          0.046999          0.179111
   5         (T1U)--V          0.252981          0.647447
   6         (T1U)--V          0.252981          0.647447
   7         (T1U)--V          0.252981          0.647447
   8         (A1G)--V          0.422484          0.398160
 Total kinetic energy from orbitals= 3.434372651583D-01
 1\1\GINC-LOGIN\SP\RMP2-FC\CEP-31G\Be1\C7441284\14-Aug-2022\0\\# MP2/CE
 P-31G Pop=Full\\Beryllium\\0,1\Be,0,0.,0.,0.\\Version=ES64L-G16RevA.03
 \State=1-A1G\HF=-0.9601909\MP2=-0.983045\RMSD=7.776e-10\PG=OH [O(Be1)]
 \\@


 QUANTUM MECHANICS IS BOHRING -- M.S. GORDON
 Job cpu time:       0 days  0 hours  0 minutes  3.0 seconds.
 Elapsed time:       0 days  0 hours  0 minutes  0.8 seconds.
 File lengths (MBytes):  RWF=     72 Int=      0 D2E=      0 Chk=      8 Scr=      8
 Normal termination of Gaussian 16 at Sun Aug 14 20:09:19 2022.
